 Entering Gaussian System, Link 0=g16
 Input=trj.499.1.com
 Output=trj.499.1.log
 Initial command:
 /share/apps/g16/l1.exe "/scratch/Gau-12106.inp" -scrdir="/scratch/"
 Entering Link 1 = /share/apps/g16/l1.exe PID=     12110.
  
 Copyright (c) 1988,1990,1992,1993,1995,1998,2003,2009,2016,
            Gaussian, Inc.  All Rights Reserved.
  
 This is part of the Gaussian(R) 16 program.  It is based on
 the Gaussian(R) 09 system (copyright 2009, Gaussian, Inc.),
 the Gaussian(R) 03 system (copyright 2003, Gaussian, Inc.),
 the Gaussian(R) 98 system (copyright 1998, Gaussian, Inc.),
 the Gaussian(R) 94 system (copyright 1995, Gaussian, Inc.),
 the Gaussian 92(TM) system (copyright 1992, Gaussian, Inc.),
 the Gaussian 90(TM) system (copyright 1990, Gaussian, Inc.),
 the Gaussian 88(TM) system (copyright 1988, Gaussian, Inc.),
 the Gaussian 86(TM) system (copyright 1986, Carnegie Mellon
 University), and the Gaussian 82(TM) system (copyright 1983,
 Carnegie Mellon University). Gaussian is a federally registered
 trademark of Gaussian, Inc.
  
 This software contains proprietary and confidential information,
 including trade secrets, belonging to Gaussian, Inc.
  
 This software is provided under written license and may be
 used, copied, transmitted, or stored only in accord with that
 written license.
  
 The following legend is applicable only to US Government
 contracts under FAR:
  
                    RESTRICTED RIGHTS LEGEND
  
 Use, reproduction and disclosure by the US Government is
 subject to restrictions as set forth in subparagraphs (a)
 and (c) of the Commercial Computer Software - Restricted
 Rights clause in FAR 52.227-19.
  
 Gaussian, Inc.
 340 Quinnipiac St., Bldg. 40, Wallingford CT 06492
  
  
 ---------------------------------------------------------------
 Warning -- This program may not be used in any manner that
 competes with the business of Gaussian, Inc. or will provide
 assistance to any competitor of Gaussian, Inc.  The licensee
 of this program is prohibited from giving any competitor of
 Gaussian, Inc. access to this program.  By using this program,
 the user acknowledges that Gaussian, Inc. is engaged in the
 business of creating and licensing software in the field of
 computational chemistry and represents and warrants to the
 licensee that it is not a competitor of Gaussian, Inc. and that
 it will not use this program in any manner prohibited above.
 ---------------------------------------------------------------
  

 Cite this work as:
 Gaussian 16, Revision A.03,
 M. J. Frisch, G. W. Trucks, H. B. Schlegel, G. E. Scuseria, 
 M. A. Robb, J. R. Cheeseman, G. Scalmani, V. Barone, 
 G. A. Petersson, H. Nakatsuji, X. Li, M. Caricato, A. V. Marenich, 
 J. Bloino, B. G. Janesko, R. Gomperts, B. Mennucci, H. P. Hratchian, 
 J. V. Ortiz, A. F. Izmaylov, J. L. Sonnenberg, D. Williams-Young, 
 F. Ding, F. Lipparini, F. Egidi, J. Goings, B. Peng, A. Petrone, 
 T. Henderson, D. Ranasinghe, V. G. Zakrzewski, J. Gao, N. Rega, 
 G. Zheng, W. Liang, M. Hada, M. Ehara, K. Toyota, R. Fukuda, 
 J. Hasegawa, M. Ishida, T. Nakajima, Y. Honda, O. Kitao, H. Nakai, 
 T. Vreven, K. Throssell, J. A. Montgomery, Jr., J. E. Peralta, 
 F. Ogliaro, M. J. Bearpark, J. J. Heyd, E. N. Brothers, K. N. Kudin, 
 V. N. Staroverov, T. A. Keith, R. Kobayashi, J. Normand, 
 K. Raghavachari, A. P. Rendell, J. C. Burant, S. S. Iyengar, 
 J. Tomasi, M. Cossi, J. M. Millam, M. Klene, C. Adamo, R. Cammi, 
 J. W. Ochterski, R. L. Martin, K. Morokuma, O. Farkas, 
 J. B. Foresman, and D. J. Fox, Gaussian, Inc., Wallingford CT, 2016.
 
 ******************************************
 Gaussian 16:  ES64L-G16RevA.03 25-Dec-2016
                24-Feb-2021 
 ******************************************
 %nprocshared=16
 Will use up to   16 processors via shared memory.
 %mem=8000MB
 %chk=499.chk
 -----------------------------------------------------
 # opt freq em=gd3bj int=ultrafine pbe1pbe scf=xqc svp
 -----------------------------------------------------
 1/18=20,19=15,26=4,38=1/1,3;
 2/9=110,12=2,17=6,18=5,40=1/2;
 3/5=18,7=101,11=2,25=1,30=1,71=1,74=-13,75=-5,124=41/1,2,3;
 4//1;
 5/5=2,8=3,13=1,38=5/2,8;
 6/7=2,8=2,9=2,10=2,28=1/1;
 7//1,2,3,16;
 1/18=20,19=15,26=4/3(2);
 2/9=110/2;
 99//99;
 2/9=110/2;
 3/5=18,7=101,11=2,25=1,30=1,71=1,74=-13,75=-5,124=41/1,2,3;
 4/5=5,16=3,69=1/1;
 5/5=2,8=3,13=1,38=5/2,8;
 7//1,2,3,16;
 1/18=20,19=15,26=4/3(-5);
 2/9=110/2;
 6/7=2,8=2,9=2,10=2,19=2,28=1/1;
 99/9=1/99;
 -------
 MODEL 1
 -------
 Symbolic Z-matrix:
 Charge =  1 Multiplicity = 1
 C                    -1.138     6.657     1.302 
 C                     1.189     6.085     2.139 
 C                     5.733     3.602    -3.319 
 C                     4.093     6.534    -2.896 
 C                     0.604     5.769    -0.763 
 C                     0.382     6.465     0.97 
 C                     0.57      4.21     -0.503 
 C                     1.265     3.729    -1.792 
 N                     1.367     3.462     0.648 
 O                     0.465     3.454    -2.65 
 O                     2.537     4.365    -1.592 
 Si                    4.068     4.59     -2.476 
 H                    -1.196     6.702     2.454 
 H                    -1.951     5.818     1.139 
 H                    -1.341     7.565     0.749 
 H                     0.774     7.043     2.925 
 H                     2.158     6.287     1.584 
 H                     1.174     4.996     2.483 
 H                     5.721     2.522    -3.037 
 H                     6.648     3.977    -2.856 
 H                     5.713     3.744    -4.401 
 H                     4.727     7.206    -3.384 
 H                     4.079     6.962    -1.851 
 H                     3.066     6.853    -3.119 
 H                     1.407     6.362    -1.141 
 H                    -0.374     6.063    -1.237 
 H                     0.812     7.392     0.529 
 H                    -0.483     3.897    -0.435 
 H                     0.81      2.716     0.934 
 H                     2.071     3.877     1.187 
 
 Add virtual bond connecting atoms H16        and C2         Dist= 2.47D+00.
 Add virtual bond connecting atoms C6         and C5         Dist= 3.55D+00.
 Add virtual bond connecting atoms H18        and H30        Dist= 3.65D+00.

 GradGradGradGradGradGradGradGradGradGradGradGradGradGradGradGradGradGrad
 Berny optimization.
 Initialization pass.
                           ----------------------------
                           !    Initial Parameters    !
                           ! (Angstroms and Degrees)  !
 --------------------------                            --------------------------
 ! Name  Definition              Value          Derivative Info.                !
 --------------------------------------------------------------------------------
 ! R1    R(1,6)                  1.5676         estimate D2E/DX2                !
 ! R2    R(1,13)                 1.1543         estimate D2E/DX2                !
 ! R3    R(1,14)                 1.1796         estimate D2E/DX2                !
 ! R4    R(1,15)                 1.0824         estimate D2E/DX2                !
 ! R5    R(2,6)                  1.4704         estimate D2E/DX2                !
 ! R6    R(2,16)                 1.3068         estimate D2E/DX2                !
 ! R7    R(2,17)                 1.1348         estimate D2E/DX2                !
 ! R8    R(2,18)                 1.1421         estimate D2E/DX2                !
 ! R9    R(3,12)                 2.1116         estimate D2E/DX2                !
 ! R10   R(3,19)                 1.1163         estimate D2E/DX2                !
 ! R11   R(3,20)                 1.0919         estimate D2E/DX2                !
 ! R12   R(3,21)                 1.0915         estimate D2E/DX2                !
 ! R13   R(4,12)                 1.989          estimate D2E/DX2                !
 ! R14   R(4,22)                 1.0448         estimate D2E/DX2                !
 ! R15   R(4,23)                 1.1293         estimate D2E/DX2                !
 ! R16   R(4,24)                 1.0983         estimate D2E/DX2                !
 ! R17   R(5,6)                  1.8807         estimate D2E/DX2                !
 ! R18   R(5,7)                  1.5809         estimate D2E/DX2                !
 ! R19   R(5,25)                 1.0674         estimate D2E/DX2                !
 ! R20   R(5,26)                 1.1259         estimate D2E/DX2                !
 ! R21   R(6,27)                 1.113          estimate D2E/DX2                !
 ! R22   R(7,8)                  1.5414         estimate D2E/DX2                !
 ! R23   R(7,9)                  1.5873         estimate D2E/DX2                !
 ! R24   R(7,28)                 1.1006         estimate D2E/DX2                !
 ! R25   R(8,10)                 1.2049         estimate D2E/DX2                !
 ! R26   R(8,11)                 1.4361         estimate D2E/DX2                !
 ! R27   R(9,29)                 0.9739         estimate D2E/DX2                !
 ! R28   R(9,30)                 0.979          estimate D2E/DX2                !
 ! R29   R(11,12)                1.7821         estimate D2E/DX2                !
 ! R30   R(18,30)                1.933          estimate D2E/DX2                !
 ! A1    A(6,1,13)             105.3579         estimate D2E/DX2                !
 ! A2    A(6,1,14)             123.4971         estimate D2E/DX2                !
 ! A3    A(6,1,15)             100.16           estimate D2E/DX2                !
 ! A4    A(13,1,14)             97.5274         estimate D2E/DX2                !
 ! A5    A(13,1,15)            117.8892         estimate D2E/DX2                !
 ! A6    A(14,1,15)            113.3794         estimate D2E/DX2                !
 ! A7    A(6,2,16)              96.5707         estimate D2E/DX2                !
 ! A8    A(6,2,17)              91.9379         estimate D2E/DX2                !
 ! A9    A(6,2,18)             118.5965         estimate D2E/DX2                !
 ! A10   A(16,2,17)            115.7744         estimate D2E/DX2                !
 ! A11   A(16,2,18)            120.9069         estimate D2E/DX2                !
 ! A12   A(17,2,18)            109.1619         estimate D2E/DX2                !
 ! A13   A(12,3,19)            110.0811         estimate D2E/DX2                !
 ! A14   A(12,3,20)            109.316          estimate D2E/DX2                !
 ! A15   A(12,3,21)            108.6892         estimate D2E/DX2                !
 ! A16   A(19,3,20)            103.5425         estimate D2E/DX2                !
 ! A17   A(19,3,21)            112.0931         estimate D2E/DX2                !
 ! A18   A(20,3,21)            113.0188         estimate D2E/DX2                !
 ! A19   A(12,4,22)            137.2953         estimate D2E/DX2                !
 ! A20   A(12,4,23)            100.0705         estimate D2E/DX2                !
 ! A21   A(12,4,24)            108.361          estimate D2E/DX2                !
 ! A22   A(22,4,23)            101.3004         estimate D2E/DX2                !
 ! A23   A(22,4,24)            106.6048         estimate D2E/DX2                !
 ! A24   A(23,4,24)             93.7965         estimate D2E/DX2                !
 ! A25   A(6,5,7)              102.173          estimate D2E/DX2                !
 ! A26   A(6,5,25)             102.0946         estimate D2E/DX2                !
 ! A27   A(6,5,26)             100.8809         estimate D2E/DX2                !
 ! A28   A(7,5,25)             128.483          estimate D2E/DX2                !
 ! A29   A(7,5,26)             107.943          estimate D2E/DX2                !
 ! A30   A(25,5,26)            111.0586         estimate D2E/DX2                !
 ! A31   A(1,6,2)              113.2921         estimate D2E/DX2                !
 ! A32   A(1,6,5)              110.7894         estimate D2E/DX2                !
 ! A33   A(1,6,27)             110.8864         estimate D2E/DX2                !
 ! A34   A(2,6,5)              124.9001         estimate D2E/DX2                !
 ! A35   A(2,6,27)             108.555          estimate D2E/DX2                !
 ! A36   A(5,6,27)              84.1176         estimate D2E/DX2                !
 ! A37   A(5,7,8)               99.236          estimate D2E/DX2                !
 ! A38   A(5,7,9)              124.9718         estimate D2E/DX2                !
 ! A39   A(5,7,28)             108.1303         estimate D2E/DX2                !
 ! A40   A(8,7,9)              103.4705         estimate D2E/DX2                !
 ! A41   A(8,7,28)             113.2222         estimate D2E/DX2                !
 ! A42   A(9,7,28)             107.5517         estimate D2E/DX2                !
 ! A43   A(7,8,10)             111.5517         estimate D2E/DX2                !
 ! A44   A(7,8,11)              98.3201         estimate D2E/DX2                !
 ! A45   A(10,8,11)            142.0283         estimate D2E/DX2                !
 ! A46   A(7,9,29)             106.6623         estimate D2E/DX2                !
 ! A47   A(7,9,30)             124.0946         estimate D2E/DX2                !
 ! A48   A(29,9,30)            125.0505         estimate D2E/DX2                !
 ! A49   A(8,11,12)            138.3939         estimate D2E/DX2                !
 ! A50   A(3,12,4)             111.2898         estimate D2E/DX2                !
 ! A51   A(3,12,11)            144.7184         estimate D2E/DX2                !
 ! A52   A(4,12,11)            103.8237         estimate D2E/DX2                !
 ! A53   A(2,18,30)            110.1167         estimate D2E/DX2                !
 ! A54   A(9,30,18)            106.3106         estimate D2E/DX2                !
 ! D1    D(13,1,6,2)            13.7103         estimate D2E/DX2                !
 ! D2    D(13,1,6,5)           159.7821         estimate D2E/DX2                !
 ! D3    D(13,1,6,27)         -108.64           estimate D2E/DX2                !
 ! D4    D(14,1,6,2)           -96.4519         estimate D2E/DX2                !
 ! D5    D(14,1,6,5)            49.6199         estimate D2E/DX2                !
 ! D6    D(14,1,6,27)          141.1979         estimate D2E/DX2                !
 ! D7    D(15,1,6,2)           136.5325         estimate D2E/DX2                !
 ! D8    D(15,1,6,5)           -77.3957         estimate D2E/DX2                !
 ! D9    D(15,1,6,27)           14.1823         estimate D2E/DX2                !
 ! D10   D(16,2,6,1)           -51.3151         estimate D2E/DX2                !
 ! D11   D(16,2,6,5)           168.197          estimate D2E/DX2                !
 ! D12   D(16,2,6,27)           72.3225         estimate D2E/DX2                !
 ! D13   D(17,2,6,1)          -167.5372         estimate D2E/DX2                !
 ! D14   D(17,2,6,5)            51.9748         estimate D2E/DX2                !
 ! D15   D(17,2,6,27)          -43.8996         estimate D2E/DX2                !
 ! D16   D(18,2,6,1)            79.3525         estimate D2E/DX2                !
 ! D17   D(18,2,6,5)           -61.1354         estimate D2E/DX2                !
 ! D18   D(18,2,6,27)         -157.0099         estimate D2E/DX2                !
 ! D19   D(6,2,18,30)           69.1558         estimate D2E/DX2                !
 ! D20   D(16,2,18,30)        -172.2733         estimate D2E/DX2                !
 ! D21   D(17,2,18,30)         -34.1533         estimate D2E/DX2                !
 ! D22   D(19,3,12,4)          177.7287         estimate D2E/DX2                !
 ! D23   D(19,3,12,11)          -8.1668         estimate D2E/DX2                !
 ! D24   D(20,3,12,4)           64.6289         estimate D2E/DX2                !
 ! D25   D(20,3,12,11)        -121.2665         estimate D2E/DX2                !
 ! D26   D(21,3,12,4)          -59.1501         estimate D2E/DX2                !
 ! D27   D(21,3,12,11)         114.9545         estimate D2E/DX2                !
 ! D28   D(22,4,12,3)           -3.437          estimate D2E/DX2                !
 ! D29   D(22,4,12,11)        -179.9342         estimate D2E/DX2                !
 ! D30   D(23,4,12,3)         -122.5066         estimate D2E/DX2                !
 ! D31   D(23,4,12,11)          60.9962         estimate D2E/DX2                !
 ! D32   D(24,4,12,3)          140.0354         estimate D2E/DX2                !
 ! D33   D(24,4,12,11)         -36.4619         estimate D2E/DX2                !
 ! D34   D(7,5,6,1)            -89.389          estimate D2E/DX2                !
 ! D35   D(7,5,6,2)             51.9226         estimate D2E/DX2                !
 ! D36   D(7,5,6,27)           160.4751         estimate D2E/DX2                !
 ! D37   D(25,5,6,1)           136.4026         estimate D2E/DX2                !
 ! D38   D(25,5,6,2)           -82.2858         estimate D2E/DX2                !
 ! D39   D(25,5,6,27)           26.2667         estimate D2E/DX2                !
 ! D40   D(26,5,6,1)            21.8582         estimate D2E/DX2                !
 ! D41   D(26,5,6,2)           163.1698         estimate D2E/DX2                !
 ! D42   D(26,5,6,27)          -88.2777         estimate D2E/DX2                !
 ! D43   D(6,5,7,8)           -159.7914         estimate D2E/DX2                !
 ! D44   D(6,5,7,9)            -46.1038         estimate D2E/DX2                !
 ! D45   D(6,5,7,28)            81.941          estimate D2E/DX2                !
 ! D46   D(25,5,7,8)           -43.3487         estimate D2E/DX2                !
 ! D47   D(25,5,7,9)            70.339          estimate D2E/DX2                !
 ! D48   D(25,5,7,28)         -161.6163         estimate D2E/DX2                !
 ! D49   D(26,5,7,8)            94.3755         estimate D2E/DX2                !
 ! D50   D(26,5,7,9)          -151.9368         estimate D2E/DX2                !
 ! D51   D(26,5,7,28)          -23.8921         estimate D2E/DX2                !
 ! D52   D(5,7,8,10)           -93.9526         estimate D2E/DX2                !
 ! D53   D(5,7,8,11)            62.1604         estimate D2E/DX2                !
 ! D54   D(9,7,8,10)           136.5474         estimate D2E/DX2                !
 ! D55   D(9,7,8,11)           -67.3396         estimate D2E/DX2                !
 ! D56   D(28,7,8,10)           20.4301         estimate D2E/DX2                !
 ! D57   D(28,7,8,11)          176.5431         estimate D2E/DX2                !
 ! D58   D(5,7,9,29)           146.1023         estimate D2E/DX2                !
 ! D59   D(5,7,9,30)           -11.7928         estimate D2E/DX2                !
 ! D60   D(8,7,9,29)          -102.2464         estimate D2E/DX2                !
 ! D61   D(8,7,9,30)            99.8586         estimate D2E/DX2                !
 ! D62   D(28,7,9,29)           17.8206         estimate D2E/DX2                !
 ! D63   D(28,7,9,30)         -140.0745         estimate D2E/DX2                !
 ! D64   D(7,8,11,12)         -175.0433         estimate D2E/DX2                !
 ! D65   D(10,8,11,12)         -32.7866         estimate D2E/DX2                !
 ! D66   D(7,9,30,18)           77.1279         estimate D2E/DX2                !
 ! D67   D(29,9,30,18)         -76.7449         estimate D2E/DX2                !
 ! D68   D(8,11,12,3)          -62.8829         estimate D2E/DX2                !
 ! D69   D(8,11,12,4)          111.461          estimate D2E/DX2                !
 ! D70   D(2,18,30,9)          -99.6597         estimate D2E/DX2                !
 --------------------------------------------------------------------------------
 Trust Radius=3.00D-01 FncErr=1.00D-07 GrdErr=1.00D-06 EigMax=2.50D+02 EigMin=1.00D-04
 Number of steps in this run=    164 maximum allowed number of steps=    180.
 GradGradGradGradGradGradGradGradGradGradGradGradGradGradGradGradGradGrad

                          Input orientation:                          
 ---------------------------------------------------------------------
 Center     Atomic      Atomic             Coordinates (Angstroms)
 Number     Number       Type             X           Y           Z
 ---------------------------------------------------------------------
      1          6           0       -1.138000    6.657000    1.302000
      2          6           0        1.189000    6.085000    2.139000
      3          6           0        5.733000    3.602000   -3.319000
      4          6           0        4.093000    6.534000   -2.896000
      5          6           0        0.604000    5.769000   -0.763000
      6          6           0        0.382000    6.465000    0.970000
      7          6           0        0.570000    4.210000   -0.503000
      8          6           0        1.265000    3.729000   -1.792000
      9          7           0        1.367000    3.462000    0.648000
     10          8           0        0.465000    3.454000   -2.650000
     11          8           0        2.537000    4.365000   -1.592000
     12         14           0        4.068000    4.590000   -2.476000
     13          1           0       -1.196000    6.702000    2.454000
     14          1           0       -1.951000    5.818000    1.139000
     15          1           0       -1.341000    7.565000    0.749000
     16          1           0        0.774000    7.043000    2.925000
     17          1           0        2.158000    6.287000    1.584000
     18          1           0        1.174000    4.996000    2.483000
     19          1           0        5.721000    2.522000   -3.037000
     20          1           0        6.648000    3.977000   -2.856000
     21          1           0        5.713000    3.744000   -4.401000
     22          1           0        4.727000    7.206000   -3.384000
     23          1           0        4.079000    6.962000   -1.851000
     24          1           0        3.066000    6.853000   -3.119000
     25          1           0        1.407000    6.362000   -1.141000
     26          1           0       -0.374000    6.063000   -1.237000
     27          1           0        0.812000    7.392000    0.529000
     28          1           0       -0.483000    3.897000   -0.435000
     29          1           0        0.810000    2.716000    0.934000
     30          1           0        2.071000    3.877000    1.187000
 ---------------------------------------------------------------------
                    Distance matrix (angstroms):
                    1          2          3          4          5
     1  C    0.000000
     2  C    2.538244   0.000000
     3  C    8.825945   7.523496   0.000000
     4  C    6.708330   5.829755   3.386023   0.000000
     5  C    2.843824   2.977194   6.126636   4.160293   0.000000
     6  C    1.567638   1.470446   7.431386   5.359313   1.880688
     7  C    3.487563   3.298325   5.912367   4.851696   1.580898
     8  C    4.890852   4.583587   4.723440   4.133331   2.378521
     9  N    4.112270   3.022399   5.900733   5.424776   2.809865
    10  O    5.333584   5.511883   5.312371   4.765428   2.989869
    11  O    5.209043   4.323872   3.712023   2.970877   2.528823
    12  Si   6.756346   5.641090   2.111639   1.989010   4.040261
    13  H    1.154337   2.483574   9.536696   7.524908   3.802575
    14  H    1.179601   3.306189   9.155778   7.302316   3.185597
    15  H    1.082350   3.243979   9.071685   6.623997   3.048735
    16  H    2.537493   1.306822   8.684452   6.720036   3.905550
    17  H    3.328669   1.134808   6.635455   4.886270   2.862106
    18  H    3.082049   1.142139   7.509389   6.310281   3.385106
    19  H    9.108843   7.747578   1.116274   4.332021   6.472849
    20  H    9.224595   7.693788   1.091888   3.614951   6.642428
    21  H    9.377952   8.289660   1.091461   3.559989   6.590717
    22  H    7.527166   6.654143   3.742336   1.044837   5.092518
    23  H    6.103403   5.004131   4.022479   1.129338   3.831790
    24  H    6.103874   5.635558   4.209738   1.098280   3.575924
    25  H    3.540099   3.298887   5.574546   3.213130   1.067400
    26  H    2.717177   3.720326   6.905555   4.788341   1.125876
    27  H    2.222668   2.107719   7.306671   4.819933   2.084864
    28  H    3.326228   3.769404   6.858800   5.826669   2.189415
    29  H    4.411531   3.598031   6.565739   6.326461   3.499008
    30  H    4.247270   2.561151   5.812908   5.274374   3.087759
                    6          7          8          9         10
     6  C    0.000000
     7  C    2.700018   0.000000
     8  C    3.986732   1.541398   0.000000
     9  N    3.176778   1.587298   2.456683   0.000000
    10  O    4.709290   2.278633   1.204902   3.419133   0.000000
    11  O    3.951945   2.253671   1.436134   2.683637   2.498493
    12  Si   5.383042   4.033997   3.010978   4.281023   3.781849
    13  H    2.179107   4.251196   5.737923   4.508681   6.273694
    14  H    2.426944   3.411344   4.826732   4.098895   5.077605
    15  H    2.056106   4.058996   5.287988   4.917120   5.631621
    16  H    2.075999   4.451819   5.785652   4.284850   6.637547
    17  H    1.887553   3.345331   4.328763   3.079351   5.368323
    18  H    2.252642   3.146237   4.459730   2.399506   5.406305
    19  H    7.752949   5.983586   4.781507   5.781016   5.352002
    20  H    7.751850   6.521732   5.492749   6.358632   6.208499
    21  H    8.041831   6.470086   5.156725   6.667806   5.540000
    22  H    6.195597   5.878505   5.158434   6.447027   5.725461
    23  H    4.676843   4.658722   4.286533   5.084284   5.099555
    24  H    4.906559   4.478719   3.842383   5.345631   4.305620
    25  H    2.348948   2.395562   2.716000   3.407656   3.408945
    26  H    2.367275   2.205335   2.905495   3.653698   3.083403
    27  H    1.112973   3.353910   4.360025   3.970779   5.072898
    28  H    3.052355   1.100637   2.219274   2.187376   2.449730
    29  H    3.773524   2.086769   2.943513   0.973941   3.675422
    30  H    3.097992   2.284730   3.089657   0.978960   4.180997
                   11         12         13         14         15
    11  O    0.000000
    12  Si   1.782145   0.000000
    13  H    5.980550   7.514994   0.000000
    14  H    5.450845   7.127732   1.755194   0.000000
    15  H    5.546095   6.964807   1.916460   1.891087   0.000000
    16  H    5.539237   6.785164   2.054026   3.480811   3.079072
    17  H    3.731582   4.797031   3.489762   4.159551   3.817527
    18  H    4.342989   5.756019   2.920304   3.499664   3.991459
    19  H    3.952535   2.706244   9.770792   9.336069   9.467708
    20  H    4.318398   2.678912   9.856473   9.658784   9.470686
    21  H    4.285219   2.669713  10.172270   9.681424   9.533177
    22  H    4.009819   2.846437   8.331758   8.184116   7.350591
    23  H    3.031378   2.452984   6.813681   6.827132   6.041524
    24  H    2.966768   2.557073   7.017533   6.661237   5.906777
    25  H    2.338442   3.464553   4.451431   4.095180   3.545534
    26  H    3.388680   4.841096   3.835034   2.862225   2.671196
    27  H    4.078847   5.242401   2.865971   3.237861   2.171114
    28  H    3.267732   5.035626   4.089342   2.884916   3.948702
    29  H    3.475976   5.074893   4.714089   4.157830   5.307902
    30  H    2.859745   4.232487   4.501022   4.466125   5.043306
                   16         17         18         19         20
    16  H    0.000000
    17  H    2.070090   0.000000
    18  H    2.132035   1.855569   0.000000
    19  H    8.969821   6.944338   7.567449   0.000000
    20  H    8.793418   6.723823   7.714140   1.734680   0.000000
    21  H    9.431193   7.411147   8.340233   1.831350   1.820862
    22  H    7.446896   5.667923   7.206219   4.800865   3.794136
    23  H    5.808594   3.993130   5.575638   4.880201   4.064482
    24  H    6.466784   4.823176   6.197622   5.080680   4.601225
    25  H    4.170948   2.827587   3.879900   6.078734   6.008122
    26  H    4.427251   3.797268   4.168116   7.275143   7.502069
    27  H    2.421582   2.036115   3.112873   7.780202   7.561703
    28  H    4.771474   4.094306   3.531030   6.866633   7.531189
    29  H    4.763224   3.871905   2.780341   6.318576   7.073646
    30  H    3.837500   2.444029   1.932973   5.744624   6.107764
                   21         22         23         24         25
    21  H    0.000000
    22  H    3.740579   0.000000
    23  H    4.419047   1.682120   0.000000
    24  H    4.279721   1.718649   1.626614   0.000000
    25  H    6.001930   4.094604   2.829078   2.627898   0.000000
    26  H    7.241562   5.651217   4.584147   3.999953   1.808474
    27  H    7.850644   5.538356   4.064799   4.321914   2.050323
    28  H    7.358191   6.840335   5.675485   5.342021   3.185398
    29  H    7.318362   7.358540   6.039131   6.215393   4.237375
    30  H    6.671401   6.247449   4.772707   5.328061   3.469251
                   26         27         28         29         30
    26  H    0.000000
    27  H    2.508305   0.000000
    28  H    2.312280   3.849850   0.000000
    29  H    4.161431   4.693507   2.222785   0.000000
    30  H    4.078284   3.791210   3.025591   1.732643   0.000000
 Stoichiometry    C8H18NO2Si(1+)
 Framework group  C1[X(C8H18NO2Si)]
 Deg. of freedom    84
 Full point group                 C1      NOp   1
 Largest Abelian subgroup         C1      NOp   1
 Largest concise Abelian subgroup C1      NOp   1
                         Standard orientation:                         
 ---------------------------------------------------------------------
 Center     Atomic      Atomic             Coordinates (Angstroms)
 Number     Number       Type             X           Y           Z
 ---------------------------------------------------------------------
      1          6           0        4.115061   -0.486320   -0.689477
      2          6           0        2.836041   -1.327838    1.335032
      3          6           0       -4.576045   -0.149551    0.810044
      4          6           0       -2.423593   -1.926195   -1.107152
      5          6           0        1.306318   -0.094902   -0.901820
      6          6           0        2.753280   -0.982120   -0.091797
      7          6           0        1.132475    1.174152    0.024742
      8          6           0       -0.319159    1.546648   -0.335693
      9          7           0        1.124229    1.147641    1.611797
     10          8           0       -0.359723    2.367727   -1.216585
     11          8           0       -0.961841    0.347821    0.125019
     12         14           0       -2.590941   -0.374724    0.126175
     13          1           0        4.913719   -0.767473    0.095120
     14          1           0        4.401281    0.652678   -0.800025
     15          1           0        4.117729   -1.023022   -1.629384
     16          1           0        3.871253   -2.119399    1.237302
     17          1           0        1.821889   -1.836432    1.310173
     18          1           0        2.813425   -0.483850    2.104224
     19          1           0       -4.638869    0.700001    1.531420
     20          1           0       -4.851096   -1.017547    1.412663
     21          1           0       -5.228837   -0.004717   -0.052611
     22          1           0       -3.040970   -2.684490   -1.475280
     23          1           0       -1.635990   -2.526216   -0.563957
     24          1           0       -1.748639   -1.645364   -1.926779
     25          1           0        0.619107   -0.894336   -1.069117
     26          1           0        1.777331    0.242390   -1.867209
     27          1           0        2.374192   -1.867630   -0.649357
     28          1           0        1.866003    1.931646   -0.290760
     29          1           0        1.537573    1.978598    1.907126
     30          1           0        1.060728    0.330177    2.146663
 ---------------------------------------------------------------------
 Rotational constants (GHZ):           1.1584214           0.3830618           0.3501846
 Standard basis: SVP (5D, 7F)
 There are   274 symmetry adapted cartesian basis functions of A   symmetry.
 There are   262 symmetry adapted basis functions of A   symmetry.
   262 basis functions,   438 primitive gaussians,   274 cartesian basis functions
    51 alpha electrons       51 beta electrons
       nuclear repulsion energy       819.2809861650 Hartrees.
 NAtoms=   30 NActive=   30 NUniq=   30 SFac= 1.00D+00 NAtFMM=   60 NAOKFM=F Big=F
 Integral buffers will be    131072 words long.
 Raffenetti 2 integral format.
 Two-electron integral symmetry is turned on.
 Nuclear repulsion after empirical dispersion term =      819.2549552363 Hartrees.
 One-electron integrals computed using PRISM.
 NBasis=   262 RedAO= T EigKep=  1.88D-03  NBF=   262
 NBsUse=   262 1.00D-06 EigRej= -1.00D+00 NBFU=   262
 ExpMin= 7.80D-02 ExpMax= 6.90D+03 ExpMxC= 1.04D+03 IAcc=3 IRadAn=         5 AccDes= 0.00D+00
 Harris functional with IExCor= 1009 and IRadAn=       5 diagonalized for initial guess.
 HarFok:  IExCor= 1009 AccDes= 0.00D+00 IRadAn=         5 IDoV= 1 UseB2=F ITyADJ=14
 ICtDFT=  3500011 ScaDFX=  1.000000  1.000000  1.000000  1.000000
 FoFCou: FMM=F IPFlag=           0 FMFlag=      100000 FMFlg1=           0
         NFxFlg=           0 DoJE=T BraDBF=F KetDBF=T FulRan=T
         wScrn=  0.000000 ICntrl=       500 IOpCl=  0 I1Cent=   200000004 NGrid=           0
         NMat0=    1 NMatS0=      1 NMatT0=    0 NMatD0=    1 NMtDS0=    0 NMtDT0=    0
 Petite list used in FoFCou.
 Requested convergence on RMS density matrix=1.00D-08 within  32 cycles.
 Requested convergence on MAX density matrix=1.00D-06.
 Requested convergence on             energy=1.00D-06.
 No special actions if energy rises.
 Integral accuracy reduced to 1.0D-05 until final iterations.
 EnCoef did     2 forward-backward iterations
 EnCoef did     2 forward-backward iterations
 EnCoef did     4 forward-backward iterations
 EnCoef did     2 forward-backward iterations
 Failed to achieve initial convergence to 1.0D-08 in 10 cycles.
 Switch to full accuracy anyway.
 SCF Done:  E(RPBE1PBE) =  -808.717854849     A.U. after   21 cycles
            NFock= 21  Conv=0.36D-08     -V/T= 2.0089
 QCSCF skips out because SCF is already converged.

 **********************************************************************

            Population analysis using the SCF density.

 **********************************************************************

 Orbital symmetries:
       Occupied  (A) (A) (A) (A) (A) (A) (A) (A) (A) (A) (A) (A)
                 (A) (A) (A) (A) (A) (A) (A) (A) (A) (A) (A) (A)
                 (A) (A) (A) (A) (A) (A) (A) (A) (A) (A) (A) (A)
                 (A) (A) (A) (A) (A) (A) (A) (A) (A) (A) (A) (A)
                 (A) (A) (A)
       Virtual   (A) (A) (A) (A) (A) (A) (A) (A) (A) (A) (A) (A)
                 (A) (A) (A) (A) (A) (A) (A) (A) (A) (A) (A) (A)
                 (A) (A) (A) (A) (A) (A) (A) (A) (A) (A) (A) (A)
                 (A) (A) (A) (A) (A) (A) (A) (A) (A) (A) (A) (A)
                 (A) (A) (A) (A) (A) (A) (A) (A) (A) (A) (A) (A)
                 (A) (A) (A) (A) (A) (A) (A) (A) (A) (A) (A) (A)
                 (A) (A) (A) (A) (A) (A) (A) (A) (A) (A) (A) (A)
                 (A) (A) (A) (A) (A) (A) (A) (A) (A) (A) (A) (A)
                 (A) (A) (A) (A) (A) (A) (A) (A) (A) (A) (A) (A)
                 (A) (A) (A) (A) (A) (A) (A) (A) (A) (A) (A) (A)
                 (A) (A) (A) (A) (A) (A) (A) (A) (A) (A) (A) (A)
                 (A) (A) (A) (A) (A) (A) (A) (A) (A) (A) (A) (A)
                 (A) (A) (A) (A) (A) (A) (A) (A) (A) (A) (A) (A)
                 (A) (A) (A) (A) (A) (A) (A) (A) (A) (A) (A) (A)
                 (A) (A) (A) (A) (A) (A) (A) (A) (A) (A) (A) (A)
                 (A) (A) (A) (A) (A) (A) (A) (A) (A) (A) (A) (A)
                 (A) (A) (A) (A) (A) (A) (A) (A) (A) (A) (A) (A)
                 (A) (A) (A) (A) (A) (A) (A)
 The electronic state is 1-A.
 Alpha  occ. eigenvalues --  -66.54835 -19.44757 -19.37542 -14.49340 -10.52492
 Alpha  occ. eigenvalues --  -10.44506 -10.41929 -10.41179 -10.37444 -10.36165
 Alpha  occ. eigenvalues --  -10.35002 -10.32754  -5.62536  -3.96813  -3.96060
 Alpha  occ. eigenvalues --   -3.95910  -1.25309  -1.20051  -1.00113  -0.91307
 Alpha  occ. eigenvalues --   -0.90530  -0.88637  -0.88186  -0.80732  -0.78341
 Alpha  occ. eigenvalues --   -0.75316  -0.67002  -0.66109  -0.64878  -0.63400
 Alpha  occ. eigenvalues --   -0.62976  -0.61660  -0.61446  -0.59737  -0.59217
 Alpha  occ. eigenvalues --   -0.57928  -0.56810  -0.55778  -0.54455  -0.53426
 Alpha  occ. eigenvalues --   -0.52800  -0.52587  -0.51662  -0.50615  -0.49447
 Alpha  occ. eigenvalues --   -0.46068  -0.44817  -0.44510  -0.42136  -0.37610
 Alpha  occ. eigenvalues --   -0.34715
 Alpha virt. eigenvalues --   -0.28616  -0.24995  -0.17152  -0.11625  -0.08558
 Alpha virt. eigenvalues --   -0.07893  -0.06035  -0.04778  -0.04451  -0.03298
 Alpha virt. eigenvalues --   -0.02339  -0.01948  -0.01419  -0.01185   0.00209
 Alpha virt. eigenvalues --    0.01130   0.01773   0.02909   0.03401   0.04190
 Alpha virt. eigenvalues --    0.04433   0.04969   0.05589   0.07311   0.08289
 Alpha virt. eigenvalues --    0.09581   0.11607   0.12336   0.13698   0.14336
 Alpha virt. eigenvalues --    0.16353   0.17520   0.18837   0.20896   0.21921
 Alpha virt. eigenvalues --    0.24588   0.26318   0.27468   0.31583   0.33735
 Alpha virt. eigenvalues --    0.34486   0.34794   0.36489   0.37480   0.38830
 Alpha virt. eigenvalues --    0.39492   0.39878   0.40688   0.41039   0.42525
 Alpha virt. eigenvalues --    0.43608   0.44628   0.45619   0.46437   0.48285
 Alpha virt. eigenvalues --    0.48475   0.49407   0.50102   0.50611   0.51246
 Alpha virt. eigenvalues --    0.52044   0.52474   0.52835   0.53630   0.54374
 Alpha virt. eigenvalues --    0.55483   0.55896   0.56317   0.56639   0.57034
 Alpha virt. eigenvalues --    0.57744   0.59162   0.59621   0.61115   0.61906
 Alpha virt. eigenvalues --    0.62633   0.63410   0.64353   0.66019   0.66490
 Alpha virt. eigenvalues --    0.66677   0.67678   0.68813   0.71729   0.72471
 Alpha virt. eigenvalues --    0.73824   0.77167   0.79348   0.80762   0.85009
 Alpha virt. eigenvalues --    0.85780   0.87789   0.94402   0.95397   0.99091
 Alpha virt. eigenvalues --    0.99417   1.00204   1.01168   1.05678   1.08340
 Alpha virt. eigenvalues --    1.08843   1.11244   1.13562   1.16185   1.20147
 Alpha virt. eigenvalues --    1.22281   1.24020   1.27010   1.28423   1.31158
 Alpha virt. eigenvalues --    1.34599   1.35163   1.35783   1.38424   1.40113
 Alpha virt. eigenvalues --    1.41156   1.42489   1.44063   1.46045   1.48136
 Alpha virt. eigenvalues --    1.50050   1.51891   1.52981   1.54274   1.57139
 Alpha virt. eigenvalues --    1.57903   1.59164   1.59633   1.60691   1.61211
 Alpha virt. eigenvalues --    1.62196   1.62596   1.63582   1.66114   1.67228
 Alpha virt. eigenvalues --    1.67676   1.69154   1.71992   1.72383   1.72852
 Alpha virt. eigenvalues --    1.73193   1.74339   1.76692   1.76854   1.79592
 Alpha virt. eigenvalues --    1.81737   1.83728   1.84491   1.85005   1.86302
 Alpha virt. eigenvalues --    1.88408   1.89850   1.92296   1.92517   1.97670
 Alpha virt. eigenvalues --    2.00688   2.02376   2.03575   2.04821   2.07834
 Alpha virt. eigenvalues --    2.10751   2.14123   2.16594   2.16761   2.17962
 Alpha virt. eigenvalues --    2.18833   2.20747   2.22555   2.23102   2.23485
 Alpha virt. eigenvalues --    2.24858   2.25480   2.27597   2.28906   2.30182
 Alpha virt. eigenvalues --    2.33865   2.37944   2.41953   2.45735   2.46509
 Alpha virt. eigenvalues --    2.48283   2.50228   2.51263   2.52102   2.55516
 Alpha virt. eigenvalues --    2.57022   2.60971   2.63780   2.65153   2.66033
 Alpha virt. eigenvalues --    2.68545   2.70802   2.71468   2.74301   2.75764
 Alpha virt. eigenvalues --    2.78162   2.79615   2.80760   2.83008   2.84635
 Alpha virt. eigenvalues --    2.86757   2.88469   2.89559   2.94483   2.95167
 Alpha virt. eigenvalues --    2.98853   3.13555   3.24788   3.29609   3.33457
 Alpha virt. eigenvalues --    3.58366
          Condensed to atoms (all electrons):
               1          2          3          4          5          6
     1  C    4.698753  -0.081565  -0.000000  -0.000000  -0.038480   0.376385
     2  C   -0.081565   4.780569   0.000000  -0.000007  -0.037357   0.378054
     3  C   -0.000000   0.000000   4.949737  -0.032845   0.000005  -0.000000
     4  C   -0.000000  -0.000007  -0.032845   4.906819  -0.000498   0.000008
     5  C   -0.038480  -0.037357   0.000005  -0.000498   5.004587   0.316772
     6  C    0.376385   0.378054  -0.000000   0.000008   0.316772   5.059421
     7  C   -0.003975  -0.002788  -0.000074  -0.000074   0.290863  -0.052827
     8  C   -0.000012  -0.000267  -0.000506  -0.000682  -0.084257   0.006843
     9  N   -0.000081  -0.010341   0.000015   0.000014  -0.034712  -0.009688
    10  O   -0.000004  -0.000001  -0.000011  -0.000038  -0.002030   0.000034
    11  O   -0.000006   0.000026  -0.005700  -0.016325   0.000913  -0.000695
    12  Si   0.000004  -0.000026   0.327216   0.366389  -0.006136   0.000409
    13  H    0.393963  -0.013775   0.000000  -0.000000   0.006016  -0.034912
    14  H    0.384424   0.001367  -0.000000   0.000000  -0.009036  -0.019369
    15  H    0.387932   0.006951   0.000000   0.000000   0.001690  -0.023623
    16  H   -0.016656   0.359143  -0.000000  -0.000000   0.006539  -0.038735
    17  H    0.014342   0.370642   0.000000  -0.000042   0.000373  -0.052886
    18  H   -0.004513   0.385988  -0.000000   0.000000  -0.009359  -0.032870
    19  H    0.000000  -0.000000   0.377374   0.001377   0.000000  -0.000000
    20  H    0.000000   0.000000   0.383248   0.000225   0.000000   0.000000
    21  H    0.000000  -0.000000   0.384808   0.000125  -0.000001   0.000000
    22  H    0.000000   0.000000  -0.000759   0.402041   0.000031  -0.000000
    23  H    0.000000   0.000003   0.001203   0.354522  -0.000185   0.000007
    24  H    0.000000   0.000007   0.000937   0.379116  -0.000231  -0.000021
    25  H    0.003809  -0.001068   0.000043   0.001647   0.398155  -0.016443
    26  H   -0.004094   0.003923   0.000000  -0.000003   0.364636  -0.006854
    27  H   -0.032446  -0.036033  -0.000000   0.000006  -0.056874   0.391248
    28  H    0.002864  -0.000597   0.000001   0.000002  -0.005167  -0.002504
    29  H   -0.000069  -0.000487  -0.000000   0.000001   0.004697   0.000388
    30  H    0.000322   0.003934   0.000004  -0.000013  -0.004376   0.000795
               7          8          9         10         11         12
     1  C   -0.003975  -0.000012  -0.000081  -0.000004  -0.000006   0.000004
     2  C   -0.002788  -0.000267  -0.010341  -0.000001   0.000026  -0.000026
     3  C   -0.000074  -0.000506   0.000015  -0.000011  -0.005700   0.327216
     4  C   -0.000074  -0.000682   0.000014  -0.000038  -0.016325   0.366389
     5  C    0.290863  -0.084257  -0.034712  -0.002030   0.000913  -0.006136
     6  C   -0.052827   0.006843  -0.009688   0.000034  -0.000695   0.000409
     7  C    5.068116   0.366905   0.288495  -0.108156  -0.150122   0.013232
     8  C    0.366905   4.596701  -0.049548   0.641973   0.182129   0.009888
     9  N    0.288495  -0.049548   6.302308   0.003732   0.006505  -0.004103
    10  O   -0.108156   0.641973   0.003732   7.619476  -0.024369   0.000239
    11  O   -0.150122   0.182129   0.006505  -0.024369   8.183863   0.297253
    12  Si   0.013232   0.009888  -0.004103   0.000239   0.297253  12.105349
    13  H   -0.000270   0.000009  -0.000060  -0.000000   0.000000   0.000000
    14  H    0.000987  -0.000021   0.000297  -0.000007  -0.000002  -0.000001
    15  H   -0.000150  -0.000010  -0.000016   0.000000   0.000001   0.000001
    16  H   -0.000003   0.000019   0.000433  -0.000000  -0.000000   0.000008
    17  H   -0.001618  -0.000175  -0.001612   0.000002   0.000431   0.000314
    18  H    0.003312   0.000131   0.022273  -0.000007  -0.000076   0.000018
    19  H   -0.000002   0.000015   0.000001  -0.000001   0.000064  -0.024281
    20  H    0.000001   0.000007   0.000000  -0.000000   0.000139  -0.011006
    21  H    0.000002  -0.000001  -0.000000   0.000003   0.000100  -0.012460
    22  H    0.000007   0.000015  -0.000000  -0.000000   0.000523  -0.010091
    23  H    0.000042  -0.000177   0.000005  -0.000003  -0.000566  -0.012762
    24  H   -0.000063   0.000075  -0.000003   0.000028  -0.000671  -0.015666
    25  H   -0.031444  -0.007016  -0.000350  -0.000359   0.003408  -0.001586
    26  H   -0.013856   0.004446   0.002984   0.001603   0.000620  -0.000150
    27  H    0.007946  -0.000278   0.000564  -0.000008  -0.000171  -0.000275
    28  H    0.376108  -0.026534  -0.018295   0.005453   0.004046  -0.000199
    29  H   -0.027219   0.005322   0.385538  -0.000027   0.000292  -0.000007
    30  H   -0.026412   0.000616   0.390242  -0.000072   0.002324   0.000514
              13         14         15         16         17         18
     1  C    0.393963   0.384424   0.387932  -0.016656   0.014342  -0.004513
     2  C   -0.013775   0.001367   0.006951   0.359143   0.370642   0.385988
     3  C    0.000000  -0.000000   0.000000  -0.000000   0.000000  -0.000000
     4  C   -0.000000   0.000000   0.000000  -0.000000  -0.000042   0.000000
     5  C    0.006016  -0.009036   0.001690   0.006539   0.000373  -0.009359
     6  C   -0.034912  -0.019369  -0.023623  -0.038735  -0.052886  -0.032870
     7  C   -0.000270   0.000987  -0.000150  -0.000003  -0.001618   0.003312
     8  C    0.000009  -0.000021  -0.000010   0.000019  -0.000175   0.000131
     9  N   -0.000060   0.000297  -0.000016   0.000433  -0.001612   0.022273
    10  O   -0.000000  -0.000007   0.000000  -0.000000   0.000002  -0.000007
    11  O    0.000000  -0.000002   0.000001  -0.000000   0.000431  -0.000076
    12  Si   0.000000  -0.000001   0.000001   0.000008   0.000314   0.000018
    13  H    0.621858  -0.032800  -0.011961   0.009313   0.000775  -0.000053
    14  H   -0.032800   0.611986  -0.021808  -0.000496  -0.000518   0.001609
    15  H   -0.011961  -0.021808   0.609775   0.001563  -0.001087  -0.000189
    16  H    0.009313  -0.000496   0.001563   0.598006  -0.009616  -0.014425
    17  H    0.000775  -0.000518  -0.001087  -0.009616   0.699745  -0.036390
    18  H   -0.000053   0.001609  -0.000189  -0.014425  -0.036390   0.594902
    19  H   -0.000000   0.000000  -0.000000  -0.000000   0.000000  -0.000000
    20  H   -0.000000   0.000000  -0.000000  -0.000000  -0.000000   0.000000
    21  H    0.000000  -0.000000   0.000000   0.000000   0.000000   0.000000
    22  H    0.000000  -0.000000   0.000000   0.000000  -0.000000   0.000000
    23  H   -0.000000   0.000000  -0.000000  -0.000001   0.000139  -0.000000
    24  H   -0.000000   0.000000  -0.000000  -0.000000  -0.000011   0.000001
    25  H   -0.000264   0.000102   0.000017  -0.000197   0.003109  -0.000489
    26  H   -0.000059   0.000625   0.002662  -0.000164  -0.000358   0.000115
    27  H    0.000115   0.005546  -0.017836  -0.011023  -0.022948   0.009296
    28  H   -0.000236   0.002068  -0.000082  -0.000024   0.000116  -0.000871
    29  H    0.000013  -0.000016   0.000001  -0.000007  -0.000043   0.002815
    30  H    0.000039  -0.000076  -0.000008  -0.000052   0.005264  -0.002055
              19         20         21         22         23         24
     1  C    0.000000   0.000000   0.000000   0.000000   0.000000   0.000000
     2  C   -0.000000   0.000000  -0.000000   0.000000   0.000003   0.000007
     3  C    0.377374   0.383248   0.384808  -0.000759   0.001203   0.000937
     4  C    0.001377   0.000225   0.000125   0.402041   0.354522   0.379116
     5  C    0.000000   0.000000  -0.000001   0.000031  -0.000185  -0.000231
     6  C   -0.000000   0.000000   0.000000  -0.000000   0.000007  -0.000021
     7  C   -0.000002   0.000001   0.000002   0.000007   0.000042  -0.000063
     8  C    0.000015   0.000007  -0.000001   0.000015  -0.000177   0.000075
     9  N    0.000001   0.000000  -0.000000  -0.000000   0.000005  -0.000003
    10  O   -0.000001  -0.000000   0.000003  -0.000000  -0.000003   0.000028
    11  O    0.000064   0.000139   0.000100   0.000523  -0.000566  -0.000671
    12  Si  -0.024281  -0.011006  -0.012460  -0.010091  -0.012762  -0.015666
    13  H   -0.000000  -0.000000   0.000000   0.000000  -0.000000  -0.000000
    14  H    0.000000   0.000000  -0.000000  -0.000000   0.000000   0.000000
    15  H   -0.000000  -0.000000   0.000000   0.000000  -0.000000  -0.000000
    16  H   -0.000000  -0.000000   0.000000   0.000000  -0.000001  -0.000000
    17  H    0.000000  -0.000000   0.000000  -0.000000   0.000139  -0.000011
    18  H   -0.000000   0.000000   0.000000   0.000000  -0.000000   0.000001
    19  H    0.512219  -0.011948  -0.007879  -0.000005  -0.000037  -0.000024
    20  H   -0.011948   0.491154  -0.007873   0.000109  -0.000152  -0.000003
    21  H   -0.007879  -0.007873   0.477392   0.000081  -0.000004  -0.000084
    22  H   -0.000005   0.000109   0.000081   0.507887  -0.011263  -0.007342
    23  H   -0.000037  -0.000152  -0.000004  -0.011263   0.561957  -0.014748
    24  H   -0.000024  -0.000003  -0.000084  -0.007342  -0.014748   0.523287
    25  H   -0.000001  -0.000000  -0.000001  -0.000118   0.002459   0.004255
    26  H   -0.000000  -0.000000   0.000000  -0.000001  -0.000029   0.000086
    27  H    0.000000   0.000000  -0.000000  -0.000001   0.000078   0.000010
    28  H    0.000000  -0.000000  -0.000000  -0.000000   0.000000   0.000001
    29  H    0.000000  -0.000000   0.000000   0.000000   0.000000  -0.000000
    30  H    0.000000  -0.000000  -0.000000  -0.000000  -0.000010  -0.000002
              25         26         27         28         29         30
     1  C    0.003809  -0.004094  -0.032446   0.002864  -0.000069   0.000322
     2  C   -0.001068   0.003923  -0.036033  -0.000597  -0.000487   0.003934
     3  C    0.000043   0.000000  -0.000000   0.000001  -0.000000   0.000004
     4  C    0.001647  -0.000003   0.000006   0.000002   0.000001  -0.000013
     5  C    0.398155   0.364636  -0.056874  -0.005167   0.004697  -0.004376
     6  C   -0.016443  -0.006854   0.391248  -0.002504   0.000388   0.000795
     7  C   -0.031444  -0.013856   0.007946   0.376108  -0.027219  -0.026412
     8  C   -0.007016   0.004446  -0.000278  -0.026534   0.005322   0.000616
     9  N   -0.000350   0.002984   0.000564  -0.018295   0.385538   0.390242
    10  O   -0.000359   0.001603  -0.000008   0.005453  -0.000027  -0.000072
    11  O    0.003408   0.000620  -0.000171   0.004046   0.000292   0.002324
    12  Si  -0.001586  -0.000150  -0.000275  -0.000199  -0.000007   0.000514
    13  H   -0.000264  -0.000059   0.000115  -0.000236   0.000013   0.000039
    14  H    0.000102   0.000625   0.005546   0.002068  -0.000016  -0.000076
    15  H    0.000017   0.002662  -0.017836  -0.000082   0.000001  -0.000008
    16  H   -0.000197  -0.000164  -0.011023  -0.000024  -0.000007  -0.000052
    17  H    0.003109  -0.000358  -0.022948   0.000116  -0.000043   0.005264
    18  H   -0.000489   0.000115   0.009296  -0.000871   0.002815  -0.002055
    19  H   -0.000001  -0.000000   0.000000   0.000000   0.000000   0.000000
    20  H   -0.000000  -0.000000   0.000000  -0.000000  -0.000000  -0.000000
    21  H   -0.000001   0.000000  -0.000000  -0.000000   0.000000  -0.000000
    22  H   -0.000118  -0.000001  -0.000001  -0.000000   0.000000  -0.000000
    23  H    0.002459  -0.000029   0.000078   0.000000   0.000000  -0.000010
    24  H    0.004255   0.000086   0.000010   0.000001  -0.000000  -0.000002
    25  H    0.634176  -0.027979  -0.011877   0.005149  -0.000176   0.001013
    26  H   -0.027979   0.590094  -0.000673  -0.009952  -0.000182  -0.000174
    27  H   -0.011877  -0.000673   0.715175  -0.000037   0.000008  -0.000427
    28  H    0.005149  -0.009952  -0.000037   0.576411  -0.009096   0.004877
    29  H   -0.000176  -0.000182   0.000008  -0.009096   0.524345  -0.028215
    30  H    0.001013  -0.000174  -0.000427   0.004877  -0.028215   0.523809
 Mulliken charges:
               1
     1  C   -0.080893
     2  C   -0.106296
     3  C   -0.384696
     4  C   -0.361766
     5  C   -0.106579
     6  C   -0.238937
     7  C    0.003036
     8  C    0.354391
     9  N   -0.274597
    10  O   -0.137448
    11  O   -0.483934
    12  Si   0.977913
    13  H    0.062287
    14  H    0.075141
    15  H    0.066176
    16  H    0.116376
    17  H    0.032052
    18  H    0.080839
    19  H    0.153127
    20  H    0.156099
    21  H    0.165791
    22  H    0.118887
    23  H    0.119525
    24  H    0.131066
    25  H    0.042028
    26  H    0.092733
    27  H    0.060915
    28  H    0.096498
    29  H    0.142126
    30  H    0.128140
 Sum of Mulliken charges =   1.00000
 Mulliken charges with hydrogens summed into heavy atoms:
               1
     1  C    0.122712
     2  C    0.122971
     3  C    0.090321
     4  C    0.007713
     5  C    0.028181
     6  C   -0.178022
     7  C    0.099534
     8  C    0.354391
     9  N   -0.004332
    10  O   -0.137448
    11  O   -0.483934
    12  Si   0.977913
 Electronic spatial extent (au):  <R**2>=           3457.9712
 Charge=              1.0000 electrons
 Dipole moment (field-independent basis, Debye):
    X=             -9.0323    Y=             -2.7972    Z=              1.5864  Tot=              9.5877
 Quadrupole moment (field-independent basis, Debye-Ang):
   XX=            -27.0684   YY=            -73.4607   ZZ=            -74.2948
   XY=              8.5651   XZ=             -3.3755   YZ=              6.0919
 Traceless Quadrupole moment (field-independent basis, Debye-Ang):
   XX=             31.2062   YY=            -15.1860   ZZ=            -16.0202
   XY=              8.5651   XZ=             -3.3755   YZ=              6.0919
 Octapole moment (field-independent basis, Debye-Ang**2):
  XXX=           -164.4242  YYY=             -4.0311  ZZZ=              6.3555  XYY=             -7.8777
  XXY=             -8.5166  XXZ=             24.6954  XZZ=            -13.0021  YZZ=             -1.8207
  YYZ=              4.0560  XYZ=              0.1455
 Hexadecapole moment (field-independent basis, Debye-Ang**3):
 XXXX=          -2455.7457 YYYY=           -776.0382 ZZZZ=           -485.1345 XXXY=             50.5518
 XXXZ=            -75.5626 YYYX=             70.3403 YYYZ=             56.2756 ZZZX=             -6.5753
 ZZZY=             24.3458 XXYY=           -614.8505 XXZZ=           -579.0771 YYZZ=           -212.9661
 XXYZ=              4.1730 YYXZ=             10.5379 ZZXY=             32.0965
 N-N= 8.192549552363D+02 E-N=-3.519873040238D+03  KE= 8.015537271245D+02
 Calling FoFJK, ICntrl=      2127 FMM=F ISym2X=0 I1Cent= 0 IOpClX= 0 NMat=1 NMatS=1 NMatT=0.
 ***** Axes restored to original set *****
 -------------------------------------------------------------------
 Center     Atomic                   Forces (Hartrees/Bohr)
 Number     Number              X              Y              Z
 -------------------------------------------------------------------
      1        6           0.003361587   -0.036721873    0.021053905
      2        6           0.016109571    0.031472884    0.008205529
      3        6          -0.039941444   -0.017386565    0.037522481
      4        6          -0.047232562   -0.039297629    0.065498834
      5        6          -0.065159527   -0.016782960    0.107899945
      6        6          -0.051790103   -0.003605830   -0.078377375
      7        6           0.069651921   -0.011090097    0.026638417
      8        6          -0.102961464    0.039845276    0.037442459
      9        7          -0.040469219    0.047665168   -0.086166053
     10        8           0.078562499   -0.010990259   -0.022204056
     11        8           0.074600135   -0.034221865   -0.074441200
     12       14          -0.003314706    0.037986897   -0.020283322
     13        1          -0.001524253    0.015661087   -0.030598823
     14        1           0.035133112    0.024520087   -0.009517036
     15        1          -0.023468046    0.010225156    0.005275592
     16        1           0.039784721   -0.062987596   -0.031868651
     17        1           0.005696583   -0.003480543    0.039351700
     18        1          -0.009203531    0.032906545    0.001744753
     19        1          -0.005211179    0.008274611   -0.007742768
     20        1           0.000826400    0.014522832    0.003174070
     21        1          -0.004745904    0.004773307   -0.004966175
     22        1           0.038504037    0.006726929   -0.030326216
     23        1           0.005515878   -0.007646678   -0.002995204
     24        1          -0.006848634   -0.007854433   -0.010434521
     25        1           0.021015673   -0.005829170   -0.009792050
     26        1           0.017553824   -0.004646038    0.004828131
     27        1          -0.012426765    0.005220635    0.021835917
     28        1           0.005552645   -0.002128471   -0.003667851
     29        1          -0.012948296   -0.027159130    0.024781946
     30        1           0.015377044    0.012027722    0.018127623
 -------------------------------------------------------------------
 Cartesian Forces:  Max     0.107899945 RMS     0.035155404

 GradGradGradGradGradGradGradGradGradGradGradGradGradGradGradGradGradGrad
 Berny optimization.
 FormGI is forming the generalized inverse of G from B-inverse, IUseBI=4.
 Internal  Forces:  Max     0.083386819 RMS     0.021852991
 Search for a local minimum.
 Step number   1 out of a maximum of  164
 All quantities printed in internal units (Hartrees-Bohrs-Radians)
 Mixed Optimization -- RFO/linear search
 Second derivative matrix not updated -- first step.
 ITU=  0
     Eigenvalues ---    0.00230   0.00230   0.00230   0.00230   0.00309
     Eigenvalues ---    0.00474   0.00555   0.00846   0.01214   0.01221
     Eigenvalues ---    0.01930   0.02081   0.02284   0.02739   0.03037
     Eigenvalues ---    0.03149   0.03405   0.03971   0.04486   0.04561
     Eigenvalues ---    0.04589   0.05010   0.05729   0.05779   0.06425
     Eigenvalues ---    0.06748   0.06923   0.07080   0.07301   0.07409
     Eigenvalues ---    0.07801   0.07843   0.07941   0.10985   0.11529
     Eigenvalues ---    0.11666   0.12612   0.13551   0.15372   0.15497
     Eigenvalues ---    0.15859   0.16000   0.16000   0.16000   0.16000
     Eigenvalues ---    0.16000   0.16000   0.16000   0.16000   0.16000
     Eigenvalues ---    0.18227   0.18262   0.18874   0.20377   0.20549
     Eigenvalues ---    0.24121   0.24825   0.24878   0.24982   0.25000
     Eigenvalues ---    0.25000   0.26204   0.26216   0.27575   0.28323
     Eigenvalues ---    0.28395   0.28910   0.30108   0.30635   0.30975
     Eigenvalues ---    0.31945   0.32287   0.33612   0.33873   0.34595
     Eigenvalues ---    0.34644   0.34665   0.35712   0.37561   0.40120
     Eigenvalues ---    0.40600   0.49767   0.52580   1.02398
 RFO step:  Lambda=-1.93332071D-01 EMin= 2.30000000D-03
 Linear search not attempted -- first point.
 Maximum step size (   0.300) exceeded in Quadratic search.
    -- Step size scaled by   0.467
 Iteration  1 RMS(Cart)=  0.15320166 RMS(Int)=  0.00393776
 Iteration  2 RMS(Cart)=  0.01029243 RMS(Int)=  0.00116683
 Iteration  3 RMS(Cart)=  0.00002600 RMS(Int)=  0.00116676
 Iteration  4 RMS(Cart)=  0.00000006 RMS(Int)=  0.00116676
 Variable       Old X    -DE/DX   Delta X   Delta X   Delta X     New X
                                 (Linear)    (Quad)   (Total)
    R1        2.96241  -0.01434   0.00000  -0.01470  -0.01470   2.94771
    R2        2.18138  -0.02985   0.00000  -0.02924  -0.02924   2.15214
    R3        2.22912  -0.04034   0.00000  -0.04134  -0.04134   2.18778
    R4        2.04535   0.01028   0.00000   0.00872   0.00872   2.05407
    R5        2.77874   0.04217   0.00000   0.03591   0.03580   2.81454
    R6        2.46954  -0.07798   0.00000  -0.09682  -0.09682   2.37271
    R7        2.14448  -0.01500   0.00000  -0.01416  -0.01416   2.13031
    R8        2.15833  -0.02946   0.00000  -0.02863  -0.02875   2.12958
    R9        3.99042  -0.05463   0.00000  -0.08264  -0.08264   3.90778
   R10        2.10945  -0.00991   0.00000  -0.00902  -0.00902   2.10043
   R11        2.06337   0.00703   0.00000   0.00608   0.00608   2.06945
   R12        2.06256   0.00563   0.00000   0.00487   0.00487   2.06743
   R13        3.75868  -0.05170   0.00000  -0.06930  -0.06930   3.68939
   R14        1.97446   0.04185   0.00000   0.03260   0.03260   2.00706
   R15        2.13414  -0.00574   0.00000  -0.00536  -0.00536   2.12878
   R16        2.07545   0.00624   0.00000   0.00548   0.00548   2.08092
   R17        3.55399  -0.04808   0.00000  -0.07149  -0.07140   3.48258
   R18        2.98746  -0.02440   0.00000  -0.02501  -0.02488   2.96258
   R19        2.01709   0.01604   0.00000   0.01316   0.01316   2.03025
   R20        2.12760  -0.01849   0.00000  -0.01716  -0.01716   2.11044
   R21        2.10322  -0.00911   0.00000  -0.00823  -0.00823   2.09498
   R22        2.91282   0.02100   0.00000   0.02054   0.02054   2.93336
   R23        2.99956  -0.06546   0.00000  -0.06937  -0.06924   2.93031
   R24        2.07990  -0.00493   0.00000  -0.00435  -0.00435   2.07555
   R25        2.27693  -0.03384   0.00000  -0.01298  -0.01298   2.26396
   R26        2.71390  -0.01061   0.00000  -0.00833  -0.00833   2.70557
   R27        1.84048   0.03549   0.00000   0.02304   0.02304   1.86352
   R28        1.84997   0.02766   0.00000   0.01793   0.01798   1.86794
   R29        3.36777  -0.06824   0.00000  -0.06791  -0.06791   3.29985
   R30        3.65279   0.00433   0.00000   0.00715   0.00699   3.65978
    A1        1.83884   0.01023   0.00000   0.01430   0.01423   1.85307
    A2        2.15543  -0.02996   0.00000  -0.03932  -0.03904   2.11639
    A3        1.74812   0.03389   0.00000   0.04380   0.04379   1.79192
    A4        1.70217   0.00999   0.00000   0.01499   0.01524   1.71741
    A5        2.05755  -0.01931   0.00000  -0.02643  -0.02696   2.03059
    A6        1.97884  -0.00993   0.00000  -0.01401  -0.01368   1.96517
    A7        1.68548   0.02580   0.00000   0.03798   0.03791   1.72338
    A8        1.60462   0.04340   0.00000   0.06700   0.06680   1.67142
    A9        2.06990  -0.01524   0.00000  -0.01840  -0.01855   2.05135
   A10        2.02065  -0.00893   0.00000  -0.01720  -0.01983   2.00081
   A11        2.11022  -0.01417   0.00000  -0.02442  -0.02458   2.08565
   A12        1.90523  -0.01300   0.00000  -0.01676  -0.01686   1.88838
   A13        1.92128   0.00304   0.00000   0.00503   0.00504   1.92632
   A14        1.90792  -0.01311   0.00000  -0.01722  -0.01731   1.89062
   A15        1.89699  -0.00867   0.00000  -0.01263  -0.01273   1.88425
   A16        1.80716   0.01173   0.00000   0.01800   0.01803   1.82518
   A17        1.95639   0.00214   0.00000   0.00260   0.00260   1.95899
   A18        1.97255   0.00539   0.00000   0.00511   0.00491   1.97746
   A19        2.39626  -0.03001   0.00000  -0.04084  -0.04106   2.35519
   A20        1.74656   0.00160   0.00000   0.00410   0.00413   1.75069
   A21        1.89126   0.00175   0.00000   0.00169   0.00141   1.89267
   A22        1.76803   0.01297   0.00000   0.01763   0.01768   1.78570
   A23        1.86060   0.01748   0.00000   0.02132   0.02102   1.88163
   A24        1.63706   0.01137   0.00000   0.01978   0.01975   1.65681
   A25        1.78326   0.03754   0.00000   0.04755   0.04807   1.83133
   A26        1.78189  -0.00951   0.00000  -0.00518  -0.00480   1.77709
   A27        1.76070  -0.01142   0.00000  -0.01296  -0.01313   1.74757
   A28        2.24245  -0.01782   0.00000  -0.02723  -0.02767   2.21478
   A29        1.88396  -0.00360   0.00000  -0.00390  -0.00399   1.87997
   A30        1.93834   0.00858   0.00000   0.00905   0.00881   1.94715
   A31        1.97732   0.02845   0.00000   0.03086   0.03071   2.00803
   A32        1.93364  -0.01043   0.00000  -0.01191  -0.01181   1.92182
   A33        1.93533  -0.01062   0.00000  -0.01339  -0.01333   1.92201
   A34        2.17992  -0.02178   0.00000  -0.02617  -0.02608   2.15384
   A35        1.89464  -0.00872   0.00000  -0.00985  -0.00960   1.88505
   A36        1.46813   0.01812   0.00000   0.02672   0.02673   1.49486
   A37        1.73200   0.02794   0.00000   0.03859   0.03878   1.77078
   A38        2.18117  -0.01348   0.00000  -0.01634  -0.01648   2.16469
   A39        1.88723  -0.00584   0.00000  -0.00928  -0.00926   1.87796
   A40        1.80590  -0.00273   0.00000   0.00226   0.00228   1.80818
   A41        1.97610  -0.01421   0.00000  -0.02252  -0.02244   1.95366
   A42        1.87713   0.00742   0.00000   0.00626   0.00610   1.88323
   A43        1.94694   0.05126   0.00000   0.06920   0.06991   2.01686
   A44        1.71601   0.05863   0.00000   0.07275   0.07163   1.78764
   A45        2.47886  -0.08339   0.00000  -0.08896  -0.09427   2.38460
   A46        1.86161   0.01325   0.00000   0.01911   0.01905   1.88065
   A47        2.16586   0.00023   0.00000  -0.00324  -0.00316   2.16270
   A48        2.18254  -0.01412   0.00000  -0.01811  -0.01811   2.16443
   A49        2.41543  -0.01448   0.00000  -0.01525  -0.01525   2.40018
   A50        1.94237   0.02220   0.00000   0.02346   0.02347   1.96584
   A51        2.52581  -0.03035   0.00000  -0.03205  -0.03206   2.49375
   A52        1.81207   0.00817   0.00000   0.00870   0.00871   1.82077
   A53        1.92190  -0.00078   0.00000  -0.00053  -0.00096   1.92094
   A54        1.85547   0.00785   0.00000   0.00621   0.00625   1.86172
    D1        0.23929   0.00809   0.00000   0.01260   0.01244   0.25173
    D2        2.78872  -0.00555   0.00000  -0.00734  -0.00763   2.78109
    D3       -1.89612   0.00686   0.00000   0.01319   0.01298  -1.88315
    D4       -1.68340   0.00277   0.00000   0.00244   0.00249  -1.68091
    D5        0.86603  -0.01087   0.00000  -0.01750  -0.01758   0.84845
    D6        2.46437   0.00154   0.00000   0.00303   0.00302   2.46739
    D7        2.38294   0.00567   0.00000   0.00828   0.00857   2.39151
    D8       -1.35081  -0.00797   0.00000  -0.01167  -0.01150  -1.36231
    D9        0.24753   0.00445   0.00000   0.00887   0.00911   0.25663
   D10       -0.89562  -0.00044   0.00000  -0.00217  -0.00157  -0.89718
   D11        2.93559   0.00701   0.00000   0.01095   0.01174   2.94733
   D12        1.26227  -0.00097   0.00000  -0.00545  -0.00481   1.25745
   D13       -2.92408  -0.00015   0.00000   0.00191   0.00110  -2.92297
   D14        0.90713   0.00730   0.00000   0.01504   0.01441   0.92154
   D15       -0.76619  -0.00068   0.00000  -0.00136  -0.00214  -0.76834
   D16        1.38496  -0.00718   0.00000  -0.01419  -0.01425   1.37071
   D17       -1.06701   0.00028   0.00000  -0.00107  -0.00095  -1.06796
   D18       -2.74034  -0.00770   0.00000  -0.01747  -0.01750  -2.75784
   D19        1.20700   0.00989   0.00000   0.01661   0.01638   1.22337
   D20       -3.00674   0.02031   0.00000   0.03252   0.03196  -2.97478
   D21       -0.59609  -0.02809   0.00000  -0.04665  -0.04619  -0.64228
   D22        3.10195   0.00223   0.00000   0.00387   0.00388   3.10583
   D23       -0.14254   0.00434   0.00000   0.00770   0.00766  -0.13488
   D24        1.12799  -0.00622   0.00000  -0.01088  -0.01076   1.11723
   D25       -2.11650  -0.00410   0.00000  -0.00704  -0.00697  -2.12347
   D26       -1.03236   0.00114   0.00000   0.00202   0.00196  -1.03040
   D27        2.00633   0.00325   0.00000   0.00585   0.00575   2.01208
   D28       -0.05999   0.00340   0.00000   0.00867   0.00864  -0.05135
   D29       -3.14044   0.00489   0.00000   0.00930   0.00917  -3.13127
   D30       -2.13814   0.00365   0.00000   0.00645   0.00652  -2.13162
   D31        1.06458   0.00514   0.00000   0.00708   0.00706   1.07164
   D32        2.44408  -0.00956   0.00000  -0.01670  -0.01660   2.42748
   D33       -0.63638  -0.00806   0.00000  -0.01607  -0.01606  -0.65244
   D34       -1.56013  -0.00409   0.00000  -0.00181  -0.00182  -1.56195
   D35        0.90622   0.00165   0.00000  -0.00030  -0.00000   0.90622
   D36        2.80082   0.00093   0.00000   0.00308   0.00315   2.80397
   D37        2.38067   0.00201   0.00000   0.00774   0.00744   2.38812
   D38       -1.43616   0.00775   0.00000   0.00926   0.00926  -1.42690
   D39        0.45844   0.00704   0.00000   0.01263   0.01242   0.47086
   D40        0.38150  -0.00052   0.00000   0.00386   0.00367   0.38517
   D41        2.84785   0.00521   0.00000   0.00538   0.00549   2.85334
   D42       -1.54074   0.00450   0.00000   0.00875   0.00865  -1.53209
   D43       -2.78889  -0.01118   0.00000  -0.02276  -0.02265  -2.81154
   D44       -0.80466   0.00204   0.00000   0.00453   0.00440  -0.80026
   D45        1.43014  -0.00609   0.00000  -0.01209  -0.01200   1.41814
   D46       -0.75658   0.00127   0.00000  -0.00016  -0.00027  -0.75685
   D47        1.22765   0.01449   0.00000   0.02713   0.02678   1.25442
   D48       -2.82074   0.00636   0.00000   0.01051   0.01037  -2.81037
   D49        1.64716  -0.01244   0.00000  -0.02622  -0.02616   1.62101
   D50       -2.65180   0.00078   0.00000   0.00107   0.00089  -2.65090
   D51       -0.41700  -0.00735   0.00000  -0.01555  -0.01551  -0.43251
   D52       -1.63978   0.00108   0.00000  -0.00636  -0.00946  -1.64924
   D53        1.08490   0.00419   0.00000   0.02845   0.03219   1.11709
   D54        2.38320   0.00469   0.00000  -0.00636  -0.00998   2.37322
   D55       -1.17530   0.00780   0.00000   0.02845   0.03166  -1.14364
   D56        0.35657   0.00428   0.00000  -0.00440  -0.00793   0.34864
   D57        3.08126   0.00738   0.00000   0.03041   0.03372   3.11497
   D58        2.54997  -0.01649   0.00000  -0.02766  -0.02767   2.52230
   D59       -0.20582  -0.01193   0.00000  -0.01848  -0.01851  -0.22433
   D60       -1.78454   0.01121   0.00000   0.01694   0.01687  -1.76767
   D61        1.74286   0.01577   0.00000   0.02613   0.02603   1.76889
   D62        0.31103  -0.00303   0.00000  -0.00482  -0.00489   0.30614
   D63       -2.44476   0.00153   0.00000   0.00436   0.00427  -2.44049
   D64       -3.05508  -0.05046   0.00000  -0.08184  -0.07492  -3.13000
   D65       -0.57223   0.05335   0.00000   0.08840   0.08148  -0.49075
   D66        1.34614  -0.00037   0.00000  -0.00172  -0.00172   1.34441
   D67       -1.33945  -0.00166   0.00000   0.00033   0.00019  -1.33926
   D68       -1.09751   0.00103   0.00000   0.00302   0.00304  -1.09447
   D69        1.94536   0.00371   0.00000   0.00739   0.00736   1.95272
   D70       -1.73939  -0.01199   0.00000  -0.01957  -0.01948  -1.75887
         Item               Value     Threshold  Converged?
 Maximum Force            0.083387     0.000450     NO 
 RMS     Force            0.021853     0.000300     NO 
 Maximum Displacement     0.437266     0.001800     NO 
 RMS     Displacement     0.146494     0.001200     NO 
 Predicted change in Energy=-8.026715D-02
 GradGradGradGradGradGradGradGradGradGradGradGradGradGradGradGradGradGrad

                          Input orientation:                          
 ---------------------------------------------------------------------
 Center     Atomic      Atomic             Coordinates (Angstroms)
 Number     Number       Type             X           Y           Z
 ---------------------------------------------------------------------
      1          6           0       -1.259784    6.572220    1.334338
      2          6           0        1.103335    6.098291    2.234342
      3          6           0        5.679513    3.494476   -3.348039
      4          6           0        4.225064    6.493876   -3.059017
      5          6           0        0.572567    5.843219   -0.644929
      6          6           0        0.272682    6.479664    1.058392
      7          6           0        0.635149    4.284571   -0.488457
      8          6           0        1.361004    3.872185   -1.797125
      9          7           0        1.438408    3.555253    0.619425
     10          8           0        0.647465    3.565208   -2.709217
     11          8           0        2.646961    4.482020   -1.641401
     12         14           0        4.130363    4.610446   -2.553686
     13          1           0       -1.378016    6.583954    2.466987
     14          1           0       -1.967073    5.686231    1.099625
     15          1           0       -1.541831    7.481892    0.810468
     16          1           0        0.670700    6.943595    3.055793
     17          1           0        2.093200    6.363401    1.764535
     18          1           0        1.130643    5.008924    2.521553
     19          1           0        5.609951    2.438678   -3.007618
     20          1           0        6.620271    3.859727   -2.922804
     21          1           0        5.634250    3.582107   -4.437623
     22          1           0        4.907334    7.088002   -3.615391
     23          1           0        4.263312    6.974095   -2.040718
     24          1           0        3.207041    6.844033   -3.290561
     25          1           0        1.360283    6.489416   -0.985797
     26          1           0       -0.403465    6.097693   -1.124340
     27          1           0        0.649806    7.447915    0.672002
     28          1           0       -0.397668    3.912203   -0.457276
     29          1           0        0.927162    2.754527    0.883849
     30          1           0        2.111371    3.996180    1.193691
 ---------------------------------------------------------------------
                    Distance matrix (angstroms):
                    1          2          3          4          5
     1  C    0.000000
     2  C    2.572731   0.000000
     3  C    8.919137   7.673606   0.000000
     4  C    7.027892   6.158029   3.345946   0.000000
     5  C    2.794003   2.938873   6.237331   4.426274   0.000000
     6  C    1.559861   1.489392   7.586950   5.707414   1.842904
     7  C    3.485210   3.304907   5.852100   4.937235   1.567732
     8  C    4.895384   4.612447   4.604076   4.082704   2.415401
     9  N    4.110162   3.031052   5.807877   5.471004   2.753736
    10  O    5.387955   5.573429   5.072929   4.636666   3.075098
    11  O    5.337286   4.473980   3.617213   2.923629   2.673748
    12  Si   6.929573   5.856774   2.067910   1.952341   4.221492
    13  H    1.138864   2.539113   9.652363   7.870155   3.746663
    14  H    1.157723   3.299209   9.113494   7.502609   3.085107
    15  H    1.086965   3.307366   9.237991   7.014711   3.045343
    16  H    2.613062   1.255585   8.831404   7.087076   3.862098
    17  H    3.386913   1.127313   6.872465   5.275274   2.896279
    18  H    3.093140   1.126924   7.578779   6.551586   3.321763
    19  H    9.117676   7.821796   1.111502   4.285462   6.522916
    20  H    9.358213   7.876795   1.095106   3.562907   6.760006
    21  H    9.475443   8.448402   1.094039   3.516356   6.716978
    22  H    7.924595   7.047646   3.685263   1.062089   5.400309
    23  H    6.485145   5.387822   3.977746   1.126502   4.104718
    24  H    6.435535   5.958713   4.163646   1.101178   3.865417
    25  H    3.500662   3.253965   5.762430   3.536273   1.074364
    26  H    2.646423   3.681193   6.980272   5.032217   1.116794
    27  H    2.202740   2.113783   7.555684   5.254822   2.077336
    28  H    3.320966   3.778465   6.742635   5.899469   2.169191
    29  H    4.422720   3.610489   6.406344   6.356499   3.464523
    30  H    4.245050   2.553030   5.797470   5.365790   3.026548
                    6          7          8          9         10
     6  C    0.000000
     7  C    2.709715   0.000000
     8  C    4.017134   1.552269   0.000000
     9  N    3.178646   1.550655   2.438473   0.000000
    10  O    4.778012   2.334398   1.198034   3.421337   0.000000
    11  O    4.112987   2.327156   1.431724   2.725955   2.445151
    12  Si   5.605604   4.072824   2.964248   4.292865   3.639684
    13  H    2.172515   4.251429   5.747919   4.529764   6.325227
    14  H    2.376497   3.355326   4.770536   4.045857   5.083485
    15  H    2.087674   4.080357   5.315636   4.933236   5.702773
    16  H    2.088842   4.430957   5.784539   4.243363   6.682020
    17  H    1.956129   3.394616   4.407685   3.102535   5.471242
    18  H    2.244998   3.135341   4.471714   2.413705   5.447820
    19  H    7.832525   5.873853   4.644759   5.639499   5.097487
    20  H    7.937624   6.475201   5.378401   6.284250   5.983876
    21  H    8.206609   6.409398   5.031601   6.571115   5.277850
    22  H    6.610168   5.990702   5.120940   6.515170   5.601582
    23  H    5.076817   4.775628   4.254947   5.171550   5.014156
    24  H    5.258956   4.584459   3.803956   5.406674   4.200010
    25  H    2.315530   2.373712   2.740101   3.345467   3.468326
    26  H    2.316763   2.184142   2.918712   3.591269   3.166982
    27  H    1.108616   3.369514   4.403207   3.972087   5.148598
    28  H    3.055892   1.098335   2.211272   2.158210   2.506780
    29  H    3.786219   2.075941   2.936835   0.986131   3.693990
    30  H    3.093021   2.256551   3.086002   0.988473   4.190639
                   11         12         13         14         15
    11  O    0.000000
    12  Si   1.746207   0.000000
    13  H    6.123514   7.710002   0.000000
    14  H    5.500241   7.189070   1.738555   0.000000
    15  H    5.705863   7.192811   1.891344   1.867844   0.000000
    16  H    5.659381   6.991360   2.161775   3.516447   3.197896
    17  H    3.930222   5.086248   3.548439   4.169710   3.921061
    18  H    4.461731   5.908905   2.962611   3.475121   4.023121
    19  H    3.849819   2.666798   9.797259   9.210175   9.547763
    20  H    4.220952   2.626683  10.022168   9.657045   9.678704
    21  H    4.189582   2.620758  10.288664   9.636834   9.708086
    22  H    3.974552   2.805207   8.760994   8.453036   7.831674
    23  H    2.997079   2.422323   7.231611   7.094931   6.487435
    24  H    2.934710   2.526740   7.364764   6.883727   6.306909
    25  H    2.472851   3.696234   4.407827   4.008165   3.554412
    26  H    3.490394   4.981017   3.752843   2.749580   2.637303
    27  H    4.258755   5.529066   2.842615   3.183464   2.196270
    28  H    3.316113   5.038407   4.080521   2.834457   3.957141
    29  H    3.509819   5.051889   4.741802   4.125293   5.333788
    30  H    2.925858   4.300755   4.526994   4.415747   5.063885
                   16         17         18         19         20
    16  H    0.000000
    17  H    2.006858   0.000000
    18  H    2.059104   1.825979   0.000000
    19  H    9.025266   7.109460   7.565851   0.000000
    20  H    8.980605   6.980967   7.816501   1.745658   0.000000
    21  H    9.596235   7.664293   8.411208   1.831102   1.828656
    22  H    7.904089   6.114573   7.499870   4.741232   3.719622
    23  H    6.235561   4.422927   5.872804   4.828907   4.004075
    24  H    6.835141   5.198619   6.438923   5.026051   4.548787
    25  H    4.125076   2.849099   3.813934   6.209341   6.191505
    26  H    4.398055   3.827470   4.102614   7.286720   7.587874
    27  H    2.436644   2.110257   3.098503   7.952050   7.838633
    28  H    4.761555   4.141164   3.523061   6.690814   7.438618
    29  H    4.725612   3.893485   2.793884   6.096867   6.937115
    30  H    3.772295   2.435144   1.936671   5.684793   6.106909
                   21         22         23         24         25
    21  H    0.000000
    22  H    3.673659   0.000000
    23  H    4.373810   1.705091   0.000000
    24  H    4.224601   1.748151   1.641564   0.000000
    25  H    6.215653   4.455855   3.126556   2.974594   0.000000
    26  H    7.332123   5.949003   4.835973   4.276130   1.812029
    27  H    8.117723   6.052919   4.543213   4.754580   2.042497
    28  H    7.234373   6.942797   5.797172   5.442155   3.164135
    29  H    7.152596   7.407020   6.122724   6.272767   4.199115
    30  H    6.655361   6.364279   4.894919   5.423954   3.395663
                   26         27         28         29         30
    26  H    0.000000
[...]
 4,0.00004245,-0.00000793,0.00001071,0.00000031,0.00002457,0.00000106,0
 .00006800,-0.00002942,-0.00017645,0.00028791,-0.00030670,-0.00018590,0
 .00024526,0.00010251,0.00020179,-0.00097763,-0.00024570,-0.00128088,-0
 .00173546,0.00074510,0.01217193,0.00667406,-0.02059269,0.03649428,0.05
 650441,0.00000653,-0.00001816,0.00002440,-0.00003611,-0.00005605,0.000
 06848,0.00032986,0.00030741,-0.00047154,0.11764577,0.05582943,-0.23217
 867,-0.00009813,-0.00005633,-0.00002936,0.00001450,0.00002688,-0.00005
 229,0.00034226,-0.00011765,0.00008710,0.00011564,0.00015437,0.00051389
 ,-0.00169297,-0.00203764,0.00067727,-0.00002472,-0.00000239,-0.0001953
 2,0.00035986,0.00008495,-0.00076229,-0.00203734,0.00030216,0.00334144,
 -0.00000335,0.00000384,0.00000424,0.00000196,0.00001262,-0.00000763,0.
 00000580,0.00000337,-0.00000339,0.00000042,0.00002172,0.00000141,-0.00
 000460,0.00001211,-0.00000184,-0.00000481,0.00003314,-0.00001685,-0.00
 007756,0.00010703,0.00001423,-0.00001378,0.00008052,-0.00001095,0.0000
 3803,-0.00021788,0.00011817,0.01285400,0.00544373,-0.01619540,0.001341
 66,0.00263407,-0.00463741,-0.12858728,-0.06252377,0.24975353,0.0007259
 8,0.00076068,0.00178729,0.00076340,0.00064320,-0.00072137,0.00003315,0
 .00002433,-0.00010686,-0.00047361,-0.00002222,0.00022292,-0.17459281,-
 0.12502949,0.04156782,-0.00467366,-0.00245603,-0.00052938,0.00537104,0
 .01004344,-0.00178168,0.00009683,-0.00065546,-0.00021536,0.00193110,-0
 .00054550,-0.00046097,0.00018113,0.00009766,-0.00046194,0.00018180,0.0
 0017053,-0.00040103,0.00020880,-0.00042907,0.00032083,-0.00007999,-0.0
 0057755,0.00028040,0.00000120,-0.00016840,0.00007415,0.00048991,0.0001
 7836,-0.00011651,0.00013301,0.00012281,0.00003078,0.00043313,-0.000022
 68,0.00017404,-0.00003096,-0.00000839,-0.00004979,0.00000283,0.0000007
 5,0.00000927,-0.00001501,0.00000650,0.00000846,0.00001176,-0.00003142,
 0.00000081,-0.00002051,-0.00002002,-0.00004364,-0.00034860,0.00009028,
 0.00020723,-0.00005425,0.00001729,0.00000750,0.18515695,0.00032458,0.0
 0124642,0.00011374,-0.00011396,-0.00002513,-0.00044635,0.00012941,0.00
 011121,0.00007819,-0.00040422,-0.00029130,0.00038539,-0.12368659,-0.16
 739568,0.04043628,0.00022103,0.00006557,-0.00022642,-0.02005443,-0.022
 64653,0.00342614,-0.00115724,-0.00028735,0.00304911,-0.00052415,0.0025
 5037,0.00011529,-0.00008260,0.00023173,-0.00068579,0.00141068,0.000241
 27,-0.00049109,0.00012730,-0.00166960,-0.00089582,-0.00010703,0.000057
 56,-0.00015920,0.00014197,0.00015199,-0.00026566,-0.00013408,-0.000108
 06,-0.00005686,0.00016579,0.00013054,-0.00007958,0.00034677,0.00007789
 ,0.00032922,-0.00000630,0.00001720,-0.00005494,-0.00005082,0.00004783,
 0.00000936,0.00001686,-0.00001913,-0.00000112,-0.00000305,-0.00000603,
 -0.00000409,-0.00003247,0.00002996,0.00003102,0.00014386,0.00073452,-0
 .00005288,-0.00019811,0.00014681,-0.00000809,0.13432093,0.18372761,-0.
 00024109,-0.00178942,-0.00659112,0.00143902,0.00064416,0.00181107,0.00
 006198,0.00001830,-0.00012947,0.00012930,0.00009717,-0.00048484,0.0430
 6517,0.03979279,-0.06035991,0.02258150,0.02175194,-0.00730348,-0.01131
 314,-0.00957586,0.00123347,-0.00085756,-0.00092700,0.00189941,0.000605
 83,0.00085623,-0.00007723,-0.00012342,0.00040191,-0.00076813,0.0000890
 8,0.00025749,-0.00019128,0.00005261,-0.00041978,0.00078420,0.00137255,
 0.00137900,-0.00042384,-0.00019786,0.00020181,0.00006793,-0.00013367,-
 0.00025329,0.00017522,0.00001976,-0.00028897,0.00026360,-0.00103275,-0
 .00024888,-0.00016167,-0.00017149,-0.00006059,-0.00003182,-0.00001477,
 0.00001812,0.00001433,-0.00001451,0.00001842,0.00000869,0.00001348,-0.
 00002602,0.00000451,-0.00010520,0.00004758,0.00006277,0.00026811,-0.00
 003127,0.00022313,0.00006914,-0.00001165,0.00000292,-0.04843441,-0.040
 17431,0.06716205,0.00111675,-0.00013197,0.00082660,0.00034862,-0.00026
 844,0.00147294,0.00004543,0.00000132,0.00008821,-0.00001870,-0.0000816
 7,0.00025229,-0.24313742,0.06653817,-0.10727678,0.00539140,-0.00290472
 ,0.00373533,-0.00865137,0.00205778,-0.00192048,-0.00216660,0.00091914,
 -0.00127553,0.00160163,0.00171419,0.00005982,0.00121870,-0.00109762,-0
 .00004909,0.00080941,-0.00010886,0.00019786,-0.00006029,-0.00019784,-0
 .00072337,0.00008551,-0.00004829,0.00000123,-0.00010671,0.00000102,0.0
 0000746,-0.00000249,0.00014250,-0.00008470,0.00034239,0.00012709,0.000
 18807,0.00014196,0.00012383,0.00006750,0.00002711,0.00000250,-0.000037
 63,-0.00000808,0.00000737,-0.00000905,0.00001476,-0.00001968,-0.000012
 76,-0.00001176,0.00000796,-0.00000456,0.00002124,0.00001983,-0.0000047
 3,0.00004635,0.00013736,-0.00009287,-0.00006856,0.00002477,-0.00001424
 ,-0.01587197,0.00659097,-0.00848559,0.25801464,0.00068319,-0.00016941,
 0.00008752,-0.00036309,0.00073155,-0.00056064,0.00014862,0.00013266,-0
 .00039974,-0.00005583,0.00003544,-0.00006431,0.06359619,-0.06758791,0.
 03543961,-0.00053066,-0.00085241,-0.00026616,0.02438592,-0.00841937,0.
 01144341,0.00428528,-0.00012683,0.00115100,0.00337589,-0.00584387,-0.0
 0250026,-0.00197662,0.00073842,0.00031585,-0.00150797,0.00012204,-0.00
 027102,-0.00016544,-0.00096845,0.00151311,-0.00013674,0.00002899,-0.00
 014542,-0.00000433,0.00000491,0.00007791,-0.00031361,0.00009831,0.0002
 1177,0.00008226,0.00023696,-0.00024478,0.00040577,0.00005253,0.0001410
 5,-0.00010637,0.00019722,-0.00025023,-0.00001848,0.00003406,0.00003418
 ,-0.00004796,0.00004039,0.00002553,0.00004456,-0.00009716,-0.00000207,
 -0.00001702,-0.00003860,-0.00000833,0.00007656,0.00013567,-0.00009224,
 -0.00003175,0.00010123,0.00003450,-0.01844603,0.00651143,-0.00972717,-
 0.07319081,0.07466305,-0.00127745,-0.00022451,0.00117283,0.00276674,-0
 .00061370,-0.00551674,0.00003930,0.00002341,-0.00029785,0.00005210,0.0
 0012778,-0.00031051,-0.10993250,0.03707322,-0.10267938,-0.02581620,0.0
 0840158,-0.01608922,0.00988316,-0.00159794,0.00414664,0.00438826,-0.00
 126094,0.00048798,0.00261662,-0.00424064,-0.00063577,-0.00092595,0.000
 67457,-0.00111066,-0.00167765,-0.00027002,-0.00038047,0.00001634,-0.00
 018829,0.00144125,0.00010618,-0.00038937,0.00027295,0.00014757,-0.0001
 0619,-0.00001700,0.00094344,0.00036159,-0.00003099,-0.00138121,0.00044
 733,-0.00091997,0.00024871,-0.00010188,0.00031260,-0.00005466,0.000180
 46,-0.00003687,0.00000235,0.00000563,0.00002665,-0.00004508,0.00003918
 ,0.00001945,0.00003107,-0.00005468,-0.00000223,-0.00003034,-0.00004002
 ,-0.00000655,-0.00003381,-0.00007768,0.00004688,0.00006676,0.00001557,
 0.00002929,0.00710133,-0.00223459,0.00263400,0.11279686,-0.03526367,0.
 11660402,0.00584782,-0.02485690,-0.00410590,-0.01085666,0.02582792,0.0
 0207429,-0.00004417,-0.00001810,0.00003034,-0.00004282,-0.00003356,0.0
 0001339,-0.00246830,0.00556801,0.00212954,-0.07082567,0.07723926,0.016
 55824,0.00052624,-0.00047855,0.00122741,0.00003883,0.00040204,-0.00014
 370,0.00012511,-0.00032431,0.00003676,0.00006031,-0.00007247,0.0000915
 9,-0.00012527,-0.00008319,0.00013244,0.00021745,0.00013158,-0.00015181
 ,0.00092986,0.00057125,-0.00011270,-0.00323824,-0.00377319,0.00121935,
 0.00070919,0.00023253,-0.00050130,0.00141245,-0.00029590,0.00042477,0.
 00016247,-0.00009279,0.00051507,-0.00451316,0.00052347,-0.00269501,0.0
 0000504,-0.00001087,-0.00000512,0.00000668,-0.00000055,-0.00000471,-0.
 00000195,0.00001036,-0.00000007,0.00001105,0.00000684,-0.00000383,-0.0
 0001336,0.00000702,0.00002047,0.00000319,-0.00001249,-0.00000537,-0.00
 007745,0.00037859,-0.00000645,0.00058905,-0.00061633,-0.00037335,0.081
 39194,0.00429480,-0.01946667,-0.00296913,0.00168858,-0.00409324,-0.000
 22914,0.00000885,0.00000947,-0.00001638,0.00000850,0.00001403,-0.00001
 889,0.00006205,-0.00147220,-0.00009695,0.07703218,-0.27874355,-0.04929
 679,-0.00042463,0.00194730,0.00068038,0.00014876,0.00008643,-0.0001246
 4,0.00007138,0.00005296,-0.00006299,0.00003375,-0.00004110,-0.00000538
 ,-0.00008871,-0.00005328,-0.00006472,-0.00002446,-0.00005560,0.0000990
 2,0.00033521,0.00075362,0.00019051,-0.00340371,-0.00120369,0.00107366,
 -0.00005175,0.00061521,-0.00027111,-0.00015112,0.00057928,0.00015840,0
 .00025710,0.00029868,0.00016363,0.00060499,0.00136659,0.00036916,-0.00
 000174,0.00000134,0.00000383,-0.00000361,0.00000059,0.00000241,0.00000
 137,-0.00000296,0.00000069,-0.00000497,-0.00000375,0.00000170,0.000002
 02,-0.00000463,0.00000011,0.00000153,0.00000375,0.00000164,0.00006456,
 0.00062436,-0.00015603,-0.00017080,0.00042298,-0.00009203,-0.08008306,
 0.29824060,-0.00223383,0.00937106,0.00112346,-0.00731115,0.01737889,0.
 00148111,0.00012982,-0.00000795,0.00002573,0.00011253,0.00002815,0.000
 06337,0.01017453,-0.02996470,-0.01194695,0.01662638,-0.04925512,-0.054
 81723,0.00113976,-0.00010158,-0.00801411,0.00019598,-0.00210966,0.0018
 4047,-0.00012571,0.00026382,0.00042698,-0.00045945,0.00050252,-0.00065
 008,0.00121305,0.00038870,-0.00070234,-0.00088769,-0.00001810,-0.00031
 691,-0.00044315,0.00048995,0.00031568,0.00139553,0.00159056,0.00007610
 ,-0.00006361,-0.00062149,0.00012424,0.00012544,0.00087666,0.00066648,0
 .00029267,-0.00042647,0.00030342,-0.00390141,0.00149519,-0.00117946,-0
 .00001935,0.00003001,0.00000354,0.00001286,-0.00002100,-0.00001548,-0.
 00000039,-0.00001270,0.00000672,0.00001766,0.00002884,-0.00000818,-0.0
 0000082,-0.00001855,-0.00001814,-0.00000169,0.00000722,0.00001422,0.00
 040558,-0.00001024,0.00102889,-0.00030514,-0.00068663,0.00092198,-0.01
 596822,0.05025440,0.06963581,0.00031053,0.00008001,0.00018786,0.000010
 85,-0.00016210,0.00003155,-0.00015073,-0.00008872,0.00073224,-0.000174
 74,-0.00020971,0.00081385,0.00771939,0.00602986,-0.00307176,-0.0000565
 5,-0.00046305,0.00040821,-0.16379435,-0.12697023,0.04478746,0.00025831
 ,0.00020055,0.00408651,-0.02760040,-0.01337708,0.00538100,-0.00021122,
 0.00054869,-0.00167838,0.00202301,-0.00039832,-0.00038900,-0.00129150,
 0.00064833,-0.00393268,-0.00014093,0.00001737,-0.00004364,-0.00002452,
 0.00011795,0.00072484,-0.00037024,0.00024121,0.00001392,0.00005066,0.0
 0001540,0.00002346,-0.00006077,0.00008198,-0.00002958,-0.00005792,-0.0
 0003645,-0.00003282,-0.00005053,0.00004716,0.00001580,0.00010190,-0.00
 009852,-0.00005367,-0.00003658,0.00022888,-0.00001186,0.00012259,0.000
 12590,-0.00001813,-0.00005274,-0.00002099,-0.00001627,-0.00005173,-0.0
 0021722,-0.00008690,0.00029090,0.00199995,0.00148258,0.00047615,-0.000
 20802,-0.00017169,-0.00006733,-0.00004761,-0.00014299,0.18405167,0.000
 03993,0.00023874,0.00001166,0.00000824,-0.00001267,-0.00011475,0.00019
 343,0.00004576,-0.00048532,0.00017501,0.00016291,-0.00053736,-0.017382
 51,-0.02231785,0.00628105,-0.00070593,0.00122354,0.00140362,-0.1363536
 8,-0.18696307,0.05658615,-0.00088840,0.00053154,-0.00181013,0.01682535
 ,0.00728904,-0.00266924,0.00049418,0.00031418,0.00024094,-0.00001967,-
 0.00044466,-0.00021862,0.00078390,-0.00045707,0.00177272,0.00013844,0.
 00035779,0.00015153,0.00007332,0.00067622,-0.00018000,0.00018063,-0.00
 011473,-0.00005411,-0.00004983,0.00004149,-0.00004406,0.00014416,-0.00
 000447,0.00008227,-0.00005256,0.00006340,-0.00009613,0.00001043,0.0000
 0406,0.00000327,-0.00005254,0.00004490,0.00002589,0.00004014,-0.000152
 04,0.00000934,-0.00007390,-0.00006132,0.00000692,0.00008549,0.00004266
 ,-0.00001725,0.00002812,0.00018177,0.00006011,0.00229818,-0.00391217,-
 0.00245862,0.00002151,0.00053180,0.00000350,-0.00002375,0.00012288,0.0
 0041446,0.13313418,0.20022086,0.00039743,-0.00118816,0.00011218,0.0000
 2507,-0.00006491,-0.00036855,-0.00002422,-0.00009726,0.00041268,0.0000
 1373,-0.00012770,0.00046507,-0.00961246,-0.01047240,0.00513780,-0.0010
 7769,0.00036912,0.00016751,0.05181906,0.05871705,-0.06593230,0.0202389
 0,0.02503355,-0.00778666,-0.01404522,-0.00694409,0.00218821,-0.0008653
 2,-0.00406606,0.00140292,0.00272821,-0.00268401,-0.00471826,-0.0008232
 3,0.00087722,-0.00325746,-0.00021483,0.00049094,0.00004768,0.00048817,
 0.00067802,-0.00127590,0.00008766,0.00000035,-0.00003142,0.00002770,0.
 00001542,-0.00002943,0.00015346,0.00013895,0.00004753,-0.00009112,-0.0
 0008487,-0.00003995,0.00003884,-0.00003202,-0.00002258,0.00003838,-0.0
 0008435,-0.00002452,-0.00005020,0.00008549,0.00000627,0.00006701,0.000
 09340,-0.00000609,0.00000616,-0.00000652,-0.00001884,-0.00004372,-0.00
 010123,-0.00002173,0.00107840,-0.00278352,-0.00062147,0.00016743,0.000
 59063,0.00063010,0.00014480,0.00024397,0.00032602,-0.04983394,-0.05798
 089,0.07149033,0.00004952,0.00042447,-0.00006117,-0.00030463,-0.000042
 12,0.00002026,0.00122566,0.00091216,-0.00210563,-0.00207256,0.00030463
 ,0.00287216,-0.00535839,0.00051594,-0.00337811,0.00024396,0.00003505,-
 0.00007836,0.00063075,0.03164184,-0.00565562,-0.00162964,0.00122268,0.
 00010666,-0.04538490,-0.02180123,-0.00253080,-0.00045642,-0.00036078,-
 0.00063243,-0.00029500,0.00091564,0.00112889,0.00155049,-0.01442120,0.
 00107832,0.00001944,-0.00014071,0.00000831,-0.00005111,-0.00024169,0.0
 0008181,0.00003162,-0.00005506,-0.00002279,0.00008637,-0.00001630,0.00
 002240,0.00007118,-0.00004900,-0.00002197,0.00018777,-0.00001398,0.000
 13680,-0.00008434,0.00050806,0.00049802,-0.00065690,0.00016707,0.00020
 752,0.00018807,-0.00031346,-0.00006660,-0.00000244,-0.00002034,-0.0000
 5166,0.00035907,0.00049674,-0.00006454,-0.00052098,-0.00069133,-0.0003
 8547,0.00026404,-0.00031185,-0.00016081,-0.00042859,0.00130369,0.00079
 748,-0.00002910,-0.00007281,0.00003177,0.00053204,0.00027958,0.0004852
 6,0.05215219,-0.00004781,0.00007495,0.00001900,-0.00008537,-0.00022809
 ,0.00042217,0.00085298,0.00048253,-0.00091145,0.00081535,0.00031310,-0
 .00041659,0.00151664,0.00016115,0.00114377,0.00016162,-0.00014743,-0.0
 0003818,-0.00026384,-0.00542405,0.00090207,0.00082046,-0.00024285,0.00
 090667,-0.00770064,-0.40000811,0.07538528,-0.00052761,0.00005983,-0.00
 073949,-0.00035243,-0.00016546,-0.00125284,-0.00324097,-0.00043815,0.0
 0418210,-0.00000537,0.00001637,0.00002011,0.00008069,0.00002936,-0.000
 05927,-0.00001555,-0.00001564,0.00000113,-0.00003049,0.00022125,0.0000
 0361,-0.00003542,0.00000343,-0.00005202,-0.00013160,0.00030935,-0.0002
 8374,-0.00011306,-0.00004221,-0.00039339,0.00009563,0.00017390,0.00004
 427,0.00016523,-0.00061175,0.00003765,-0.00005003,-0.00000663,-0.00000
 081,-0.00005009,-0.00011299,-0.00001479,0.00010868,0.00017757,0.000000
 54,-0.00002856,0.00030853,0.00006913,0.00002912,-0.00015587,-0.0004024
 1,-0.00008129,0.00003714,0.00002124,-0.00153354,0.00246254,-0.00075597
 ,0.01002013,0.41943996,-0.00003048,-0.00033594,-0.00006923,0.00005318,
 -0.00108076,-0.00001207,-0.00139653,-0.00067903,0.00223784,0.00132214,
 -0.00056767,-0.00168525,0.00009715,-0.00070632,-0.00007731,-0.00011879
 ,0.00022369,0.00042975,0.00171419,0.00630646,-0.00275227,-0.00142265,0
 .00145877,-0.00018547,-0.00511406,0.09664827,-0.07109471,-0.00008072,-
 0.00026439,-0.00040500,0.00031682,-0.00167851,-0.00196989,0.00051874,0
 .01633714,-0.00201919,0.00001359,0.00006555,-0.00002376,0.00006391,0.0
 0019514,0.00005541,-0.00005216,0.00009933,0.00000692,0.00010584,0.0002
 9386,-0.00009656,0.00022271,0.00032602,-0.00010653,-0.00016978,0.00031
 323,-0.00023441,0.00044490,-0.00092870,-0.00059708,0.00006972,-0.00016
 827,-0.00001837,-0.00052908,0.00038748,-0.00014754,0.00012412,0.000051
 34,0.00000347,-0.00027226,-0.00025736,-0.00004998,0.00032846,0.0004711
 8,0.00031090,0.00007833,0.00004171,-0.00013254,0.00011187,-0.00001849,
 0.00007294,-0.00006363,0.00001675,-0.00011524,0.00011794,-0.00030371,0
 .00129023,0.00403573,-0.08391686,0.06755663,-0.00007185,0.00001881,-0.
 00003542,0.00051393,0.00225332,-0.00176269,-0.00169844,-0.00075085,0.0
 0103342,0.00085352,0.00009814,-0.00186414,0.00246795,-0.00042776,-0.00
 006736,-0.00209997,0.00086324,0.00078791,-0.01054100,-0.01333261,-0.02
 569500,-0.00596364,0.00018155,0.00218873,-0.06756372,-0.03811492,-0.07
 423236,-0.00009556,0.00061840,-0.00224901,0.00097219,-0.00189428,0.002
 60471,0.00734235,0.00911496,0.00781892,0.00005170,0.00001483,-0.000018
 71,-0.00015844,-0.00010518,0.00000834,0.00009415,-0.00010631,-0.000027
 48,0.00007191,-0.00106305,-0.00005175,-0.00027409,-0.00085102,0.000279
 69,0.00076481,-0.00094635,0.00113899,0.00030278,-0.00041685,-0.0002017
 4,-0.00026646,0.00025799,0.00015071,-0.00049385,0.00038882,-0.00011023
 ,-0.00071163,-0.00040164,0.00010253,-0.00001058,-0.00029671,0.00009400
 ,-0.00000054,0.00035438,0.00000886,-0.00003814,0.00054823,0.00004260,0
 .00024142,-0.00065087,-0.00028439,0.00026680,-0.00008664,-0.00000897,-
 0.00175522,0.00064858,-0.00132372,-0.00031718,-0.00037288,-0.00048921,
 0.07811681,-0.00029120,0.00038705,-0.00031083,0.00151740,0.00407408,0.
 00028864,-0.00075156,-0.00033044,0.00042825,-0.00007304,-0.00011598,-0
 .00045124,0.00190069,0.00172475,0.00062629,0.00135160,-0.00075226,0.00
 045697,0.00031650,0.00657041,0.01135324,0.00163644,-0.00049776,0.00022
 441,-0.04354751,-0.13423255,-0.13590286,0.00113751,-0.00043873,0.00187
 748,0.00058005,-0.00112334,0.00268613,0.00505475,0.00440581,0.00049784
 ,0.00003871,-0.00007642,-0.00004485,-0.00006155,-0.00024107,0.00004025
 ,-0.00016508,-0.00016115,0.00000869,-0.00122806,-0.00092462,-0.0001559
 4,-0.00166933,-0.00218585,-0.00023523,0.00043235,-0.00083661,-0.000146
 25,0.00008471,-0.00007675,-0.00001338,0.00010268,0.00000384,-0.0000427
 1,-0.00002115,0.00022166,0.00002514,-0.00027994,0.00001176,0.00009674,
 -0.00002417,-0.00042545,0.00033756,0.00007018,-0.00019153,-0.00011617,
 -0.00039869,-0.00065184,0.00059482,-0.00024573,-0.00055976,-0.00019525
 ,-0.00004156,-0.00003656,0.00011252,0.00031415,-0.00011604,0.00013985,
 -0.01019580,-0.01667174,-0.03232993,0.04445667,0.14324710,-0.00028296,
 0.00024831,-0.00092039,0.00020098,-0.00302457,0.00296478,-0.00002798,0
 .00047306,0.00048535,-0.00138860,-0.00050156,0.00299904,0.00088944,-0.
 00018864,0.00259206,0.00141031,0.00025372,0.00227937,-0.00342273,-0.00
 068311,-0.00591999,-0.00143223,0.00018493,-0.00093295,-0.09225493,-0.1
 5173484,-0.30011248,0.00034807,-0.00021742,0.00039660,0.00135602,0.000
 50936,-0.00060946,-0.00091420,-0.00443889,-0.01336707,0.00022033,0.000
 01952,-0.00012347,0.00012651,-0.00004171,0.00014497,-0.00034168,-0.000
 08034,0.00002655,-0.00148880,0.00139788,-0.00092815,-0.00031866,-0.001
 48846,-0.00039535,0.00062400,0.00291270,-0.00339428,-0.00008689,-0.000
 01475,-0.00004557,0.00018539,-0.00015135,-0.00002734,0.00001192,0.0000
 5114,0.00002490,0.00034371,0.00038904,0.00004544,0.00022540,0.00049563
 ,-0.00005016,-0.00036938,-0.00070942,-0.00037682,-0.00003222,0.0006150
 9,-0.00009939,0.00032306,-0.00056489,-0.00078532,-0.00047731,0.0001439
 2,-0.00060008,0.00070610,-0.00008325,0.00043062,0.00370456,0.00607908,
 0.00982829,0.09216278,0.15014983,0.30647029\\-0.00000794,0.00000408,0.
 00000237,0.00000862,0.00000518,-0.00001758,0.00000101,-0.00000965,-0.0
 0000085,0.00000687,-0.00000551,-0.00002475,-0.00001261,0.00000308,-0.0
 0002385,0.00000391,-0.00000837,0.00002100,0.00001202,-0.00001804,-0.00
 000703,0.00000885,0.00002455,0.00001044,-0.00001462,-0.00000828,0.0000
 2252,-0.00000673,0.00000575,-0.00000189,-0.00000136,-0.00003679,-0.000
 01478,-0.00001001,0.00001902,0.00001713,0.00000372,0.00000021,-0.00000
 135,-0.00000069,0.00000524,0.00000373,0.00000230,0.00000070,0.00000100
 ,-0.00000284,-0.00000712,0.00000041,-0.00000209,0.00000061,0.00000397,
 -0.00000933,-0.00001565,0.00002307,-0.00000621,0.00000416,0.00000038,-
 0.00000048,0.,-0.00000050,-0.00000066,-0.00000211,-0.00000025,-0.00000
 325,-0.00001087,0.00000724,0.00000003,0.00000227,-0.00000013,-0.000004
 79,0.00001213,0.00000487,0.00000057,-0.00000215,0.00000209,0.00000021,
 0.00000210,0.00000572,0.00000389,0.00000269,-0.00000287,-0.00000302,0.
 00000689,-0.00000013,0.00000668,-0.00000265,-0.00000413,0.00002796,0.0
 0002857,-0.00002586\\\@


 MY DESCRIPTION OF EXPERIENCE IS NOT WHAT HAPPENS
 TO A MAN.  EXPERIENCE IS WHAT A MAN DOES WITH WHAT
 HAPPENS TO HIM.
                         - CHUCK KNOX, SEATTLE SEAHAWKS, 1985
 Job cpu time:       0 days  1 hours 20 minutes 48.7 seconds.
 Elapsed time:       0 days  0 hours  5 minutes  6.4 seconds.
 File lengths (MBytes):  RWF=    231 Int=      0 D2E=      0 Chk=      8 Scr=      1
 Normal termination of Gaussian 16 at Wed Feb 24 15:04:49 2021.
