 Entering Gaussian System, Link 0=g16
 Input=trj499hp.com
 Output=trj499hp.log
 Initial command:
 /share/apps/g16/l1.exe "/scratch/Gau-30067.inp" -scrdir="/scratch/"
 Entering Link 1 = /share/apps/g16/l1.exe PID=     30071.
  
 Copyright (c) 1988,1990,1992,1993,1995,1998,2003,2009,2016,
            Gaussian, Inc.  All Rights Reserved.
  
 This is part of the Gaussian(R) 16 program.  It is based on
 the Gaussian(R) 09 system (copyright 2009, Gaussian, Inc.),
 the Gaussian(R) 03 system (copyright 2003, Gaussian, Inc.),
 the Gaussian(R) 98 system (copyright 1998, Gaussian, Inc.),
 the Gaussian(R) 94 system (copyright 1995, Gaussian, Inc.),
 the Gaussian 92(TM) system (copyright 1992, Gaussian, Inc.),
 the Gaussian 90(TM) system (copyright 1990, Gaussian, Inc.),
 the Gaussian 88(TM) system (copyright 1988, Gaussian, Inc.),
 the Gaussian 86(TM) system (copyright 1986, Carnegie Mellon
 University), and the Gaussian 82(TM) system (copyright 1983,
 Carnegie Mellon University). Gaussian is a federally registered
 trademark of Gaussian, Inc.
  
 This software contains proprietary and confidential information,
 including trade secrets, belonging to Gaussian, Inc.
  
 This software is provided under written license and may be
 used, copied, transmitted, or stored only in accord with that
 written license.
  
 The following legend is applicable only to US Government
 contracts under FAR:
  
                    RESTRICTED RIGHTS LEGEND
  
 Use, reproduction and disclosure by the US Government is
 subject to restrictions as set forth in subparagraphs (a)
 and (c) of the Commercial Computer Software - Restricted
 Rights clause in FAR 52.227-19.
  
 Gaussian, Inc.
 340 Quinnipiac St., Bldg. 40, Wallingford CT 06492
  
  
 ---------------------------------------------------------------
 Warning -- This program may not be used in any manner that
 competes with the business of Gaussian, Inc. or will provide
 assistance to any competitor of Gaussian, Inc.  The licensee
 of this program is prohibited from giving any competitor of
 Gaussian, Inc. access to this program.  By using this program,
 the user acknowledges that Gaussian, Inc. is engaged in the
 business of creating and licensing software in the field of
 computational chemistry and represents and warrants to the
 licensee that it is not a competitor of Gaussian, Inc. and that
 it will not use this program in any manner prohibited above.
 ---------------------------------------------------------------
  

 Cite this work as:
 Gaussian 16, Revision A.03,
 M. J. Frisch, G. W. Trucks, H. B. Schlegel, G. E. Scuseria, 
 M. A. Robb, J. R. Cheeseman, G. Scalmani, V. Barone, 
 G. A. Petersson, H. Nakatsuji, X. Li, M. Caricato, A. V. Marenich, 
 J. Bloino, B. G. Janesko, R. Gomperts, B. Mennucci, H. P. Hratchian, 
 J. V. Ortiz, A. F. Izmaylov, J. L. Sonnenberg, D. Williams-Young, 
 F. Ding, F. Lipparini, F. Egidi, J. Goings, B. Peng, A. Petrone, 
 T. Henderson, D. Ranasinghe, V. G. Zakrzewski, J. Gao, N. Rega, 
 G. Zheng, W. Liang, M. Hada, M. Ehara, K. Toyota, R. Fukuda, 
 J. Hasegawa, M. Ishida, T. Nakajima, Y. Honda, O. Kitao, H. Nakai, 
 T. Vreven, K. Throssell, J. A. Montgomery, Jr., J. E. Peralta, 
 F. Ogliaro, M. J. Bearpark, J. J. Heyd, E. N. Brothers, K. N. Kudin, 
 V. N. Staroverov, T. A. Keith, R. Kobayashi, J. Normand, 
 K. Raghavachari, A. P. Rendell, J. C. Burant, S. S. Iyengar, 
 J. Tomasi, M. Cossi, J. M. Millam, M. Klene, C. Adamo, R. Cammi, 
 J. W. Ochterski, R. L. Martin, K. Morokuma, O. Farkas, 
 J. B. Foresman, and D. J. Fox, Gaussian, Inc., Wallingford CT, 2016.
 
 ******************************************
 Gaussian 16:  ES64L-G16RevA.03 25-Dec-2016
                24-Feb-2021 
 ******************************************
 %nprocshared=8
 Will use up to    8 processors via shared memory.
 %mem=4000MB
 %chk=305_73scan.chk
 ---------------------------------------------------------
 # freq=hpmodes em=gd3bj int=ultrafine pbe1pbe scf=xqc svp
 ---------------------------------------------------------
 1/10=4,30=1,38=1/1,3;
 2/12=2,17=6,18=5,40=1/2;
 3/5=18,7=101,11=2,25=1,30=1,71=2,74=-13,75=-5,124=41,140=1/1,2,3;
 4//1;
 5/5=2,8=3,13=1,38=5,98=1/2,8;
 8/6=4,10=90,11=11/1;
 11/6=1,8=1,9=11,15=111,16=1/1,2,10;
 10/6=1/2;
 6/7=2,8=2,9=2,10=2,28=1/1;
 7/8=11,10=1,25=1/1,2,3,16;
 1/10=4,30=1/3;
 99//99;
 -------------------
 Title Card Required
 -------------------
 Symbolic Z-matrix:
 Charge =  1 Multiplicity = 1
 C                    -1.50902   7.8517    0.36953 
 C                    -2.19345   8.95658  -1.72794 
 C                     1.58198   4.81891  -2.03234 
 C                     4.43437   5.86438  -1.19661 
 C                     0.03389   9.73348  -0.6809 
 C                    -0.99589   8.5343   -0.92886 
 C                     1.36638   9.23158  -0.17623 
 C                     2.08561   8.50791  -1.29839 
 N                     2.21879   10.36053   0.34365 
 O                     2.77568   9.02333  -2.13276 
 O                     2.01654   7.22105  -1.1387 
 Si                    2.63718   5.78131  -0.80447 
 H                    -1.84847   8.71588   0.93664 
 H                    -0.55853   7.44659   0.81579 
 H                    -2.2744    7.07815   0.3817 
 H                    -2.87025   9.63944  -1.21306 
 H                    -2.7959    7.96451  -1.79149 
 H                    -1.9279    9.49474  -2.60532 
 H                     1.67347   5.28033  -3.11275 
 H                     0.5327    5.04244  -1.73828 
 H                     1.65163   3.7498   -2.12438 
 H                     4.82879   6.70022  -1.87205 
 H                     4.45342   5.13171  -1.91289 
 H                     5.16495   5.71203  -0.36183 
 H                    -0.3092    10.51017  -0.0029 
 H                     0.10948   10.15932  -1.74068 
 H                    -0.41696   7.8235   -1.45042 
 H                     1.33792   8.40791   0.54817 
 H                     2.69106   10.75293  -0.41301 
 H                     3.01393   10.09885   0.97513 
 

 GradGradGradGradGradGradGradGradGradGradGradGradGradGradGradGradGradGrad
 Berny optimization.
 Initialization pass.
 Trust Radius=3.00D-01 FncErr=1.00D-07 GrdErr=1.00D-07 EigMax=2.50D+02 EigMin=1.00D-04
 Number of steps in this run=      2 maximum allowed number of steps=      2.
 GradGradGradGradGradGradGradGradGradGradGradGradGradGradGradGradGradGrad

                          Input orientation:                          
 ---------------------------------------------------------------------
 Center     Atomic      Atomic             Coordinates (Angstroms)
 Number     Number       Type             X           Y           Z
 ---------------------------------------------------------------------
      1          6           0       -1.509021    7.851704    0.369531
      2          6           0       -2.193453    8.956575   -1.727939
      3          6           0        1.581982    4.818911   -2.032341
      4          6           0        4.434372    5.864382   -1.196611
      5          6           0        0.033891    9.733475   -0.680904
      6          6           0       -0.995888    8.534305   -0.928864
      7          6           0        1.366379    9.231578   -0.176234
      8          6           0        2.085612    8.507905   -1.298389
      9          7           0        2.218786   10.360531    0.343645
     10          8           0        2.775684    9.023328   -2.132757
     11          8           0        2.016544    7.221051   -1.138695
     12         14           0        2.637182    5.781311   -0.804465
     13          1           0       -1.848470    8.715875    0.936636
     14          1           0       -0.558530    7.446587    0.815793
     15          1           0       -2.274395    7.078152    0.381697
     16          1           0       -2.870252    9.639435   -1.213062
     17          1           0       -2.795900    7.964507   -1.791485
     18          1           0       -1.927895    9.494743   -2.605322
     19          1           0        1.673469    5.280331   -3.112750
     20          1           0        0.532702    5.042445   -1.738283
     21          1           0        1.651633    3.749803   -2.124376
     22          1           0        4.828786    6.700222   -1.872053
     23          1           0        4.453420    5.131706   -1.912885
     24          1           0        5.164953    5.712029   -0.361829
     25          1           0       -0.309195   10.510174   -0.002899
     26          1           0        0.109477   10.159318   -1.740676
     27          1           0       -0.416962    7.823505   -1.450423
     28          1           0        1.337916    8.407907    0.548165
     29          1           0        2.691062   10.752932   -0.413012
     30          1           0        3.013927   10.098852    0.975132
 ---------------------------------------------------------------------
                    Distance matrix (angstroms):
                    1          2          3          4          5
     1  C    0.000000
     2  C    2.467502   0.000000
     3  C    4.951881   5.609531   0.000000
     4  C    6.459580   7.332942   3.150807   0.000000
     5  C    2.650482   2.580875   5.326904   5.882182   0.000000
     6  C    1.554053   1.500332   4.654807   6.057054   1.599981
     7  C    3.235713   3.893048   4.791998   4.668164   1.510668
     8  C    4.016708   4.323912   3.794866   3.537689   2.468374
     9  N    4.493487   5.072515   6.063034   5.243717   2.493324
    10  O    5.098318   4.986046   4.371742   3.688706   3.182706
    11  O    3.886139   4.591658   2.599562   2.773048   3.233073
    12  Si   4.780773   5.854070   1.883438   1.841350   4.734131
    13  H    1.087945   2.697575   5.980732   7.221901   2.682392
    14  H    1.125479   3.379883   4.427001   5.610901   2.796591
    15  H    1.088268   2.825878   5.079704   6.997989   3.675329
    16  H    2.748369   1.090620   6.612946   8.222459   2.953994
    17  H    2.517692   1.162402   5.396169   7.552565   3.517152
    18  H    3.424147   1.062990   5.874602   7.459385   2.758438
    19  H    5.372754   5.512310   1.178373   3.411054   5.332221
    20  H    4.062444   4.769952   1.112397   4.023931   4.834524
    21  H    5.747599   6.484776   1.075320   3.616052   6.364356
    22  H    6.820440   7.377245   3.755897   1.144733   5.797454
    23  H    6.939634   7.671033   2.890894   1.024805   6.498176
    24  H    7.046632   8.157173   4.052894   1.119741   6.526993
    25  H    2.940366   2.989960   6.331324   6.746092   1.086582
    26  H    3.521021   2.598122   5.547368   6.119412   1.144628
    27  H    2.122645   2.125272   3.655406   5.238132   2.107941
    28  H    2.906256   4.237010   4.427129   4.370561   2.228951
    29  H    5.164319   5.367906   6.250191   5.248912   2.858604
    30  H    5.086599   5.977307   6.242847   4.966374   3.428786
                    6          7          8          9         10
     6  C    0.000000
     7  C    2.575451   0.000000
     8  C    3.103689   1.516651   0.000000
     9  N    3.910052   1.507119   2.479160   0.000000
    10  O    3.989142   2.420225   1.199179   2.868940   0.000000
    11  O    3.292934   2.321910   1.298563   3.477725   2.193776
    12  Si   4.560005   3.730142   2.825333   4.739459   3.506311
    13  H    2.059115   3.440884   4.529414   4.427087   5.558642
    14  H    2.101961   2.806347   3.547908   4.053082   4.721974
    15  H    2.339344   4.266587   4.886363   5.564543   5.967368
    16  H    2.194384   4.380685   5.084115   5.370440   5.753435
    17  H    2.075772   4.641020   4.936353   5.953720   5.681559
    18  H    2.145132   4.101459   4.334762   5.161488   4.750706
    19  H    4.741642   4.932523   3.725453   6.168668   4.023095
    20  H    3.896772   4.547950   3.822885   5.954775   4.586285
    21  H    5.597328   5.824645   4.848724   7.079161   5.391997
    22  H    6.179020   4.612139   3.334938   5.011914   3.111272
    23  H    6.499303   5.418000   4.169273   6.117690   4.243567
    24  H    6.800201   5.181779   4.263380   5.548528   4.450786
    25  H    2.287579   2.114805   3.379715   2.556007   4.032801
    26  H    2.126391   2.210878   2.613024   2.972216   2.924527
    27  H    1.054711   2.605097   2.598922   4.074598   3.478239
    28  H    2.764820   1.097268   1.994696   2.151860   3.103750
    29  H    4.333822   2.031100   2.488093   0.974450   2.440536
    30  H    4.706551   2.189114   2.926052   1.048571   3.297345
                   11         12         13         14         15
    11  O    0.000000
    12  Si   1.603045   0.000000
    13  H    4.634634   5.635971   0.000000
    14  H    3.240663   3.951070   1.813737   0.000000
    15  H    4.554577   5.216547   1.780872   1.807865   0.000000
    16  H    5.452970   6.736757   2.553077   3.777419   3.075463
    17  H    4.913093   5.937923   2.984095   3.474473   2.404228
    18  H    4.783228   6.154071   3.627452   4.215938   3.857753
    19  H    2.789442   2.551059   6.372169   5.010782   5.570364
    20  H    2.703260   2.418011   5.130230   3.673417   4.064260
    21  H    3.626884   2.615434   6.803116   5.214943   5.724684
    22  H    2.952589   2.605239   7.519132   6.066692   7.461729
    23  H    3.301984   2.224703   7.789728   6.158247   7.370024
    24  H    3.576751   2.567168   7.739328   6.095387   7.600199
    25  H    4.185382   5.629013   2.543934   3.180879   3.973500
    26  H    3.554251   5.141277   3.617331   3.786909   4.436316
    27  H    2.526277   3.730364   2.922942   2.301705   2.713351
    28  H    2.171327   3.227492   3.224719   2.142958   3.852889
    29  H    3.668211   4.987299   5.155434   4.796012   6.228269
    30  H    3.707395   4.685089   5.055394   4.452230   6.119080
                   16         17         18         19         20
    16  H    0.000000
    17  H    1.773552   0.000000
    18  H    1.687412   1.938398   0.000000
    19  H    6.576930   5.378271   5.566738   0.000000
    20  H    5.743542   4.429545   5.160354   1.801971   0.000000
    21  H    7.481023   6.136375   6.785917   1.822053   1.752712
    22  H    8.267311   7.729214   7.348454   3.675792   4.606784
    23  H    8.628183   7.784095   7.761233   3.031484   3.925619
    24  H    8.984077   8.395996   8.345698   4.465914   4.878598
    25  H    2.963392   3.982859   3.228606   6.399483   5.797966
    26  H    3.070414   3.641565   2.310878   5.304071   5.134347
    27  H    3.061466   2.407395   2.531748   3.687949   2.952799
    28  H    4.725173   4.770639   4.668106   4.826658   4.147596
    29  H    5.727842   6.307317   5.265361   6.186553   6.246961
    30  H    6.294666   6.779652   6.132390   6.459547   6.251908
                   21         22         23         24         25
    21  H    0.000000
    22  H    4.343149   0.000000
    23  H    3.131197   1.613322   0.000000
    24  H    4.393213   1.835840   1.802451   0.000000
    25  H    7.351743   6.663957   7.433604   7.288163   0.000000
    26  H    6.603586   5.852733   6.646531   6.872950   1.821608
    27  H    4.618262   5.381209   5.583930   6.066395   3.053708
    28  H    5.379482   4.578189   5.147487   4.768864   2.726935
    29  H    7.283749   4.808651   6.078956   5.615466   3.037872
    30  H    7.195361   4.790706   5.923286   5.065431   3.488391
                   26         27         28         29         30
    26  H    0.000000
    27  H    2.411930   0.000000
    28  H    3.132937   2.723137   0.000000
    29  H    2.963047   4.395177   2.872979   0.000000
    30  H    3.976820   4.778234   2.418803   1.568122   0.000000
 Stoichiometry    C8H18NO2Si(1+)
 Framework group  C1[X(C8H18NO2Si)]
 Deg. of freedom    84
 Full point group                 C1      NOp   1
 Largest Abelian subgroup         C1      NOp   1
 Largest concise Abelian subgroup C1      NOp   1
                         Standard orientation:                         
 ---------------------------------------------------------------------
 Center     Atomic      Atomic             Coordinates (Angstroms)
 Number     Number       Type             X           Y           Z
 ---------------------------------------------------------------------
      1          6           0        2.386586   -1.455372   -1.310535
      2          6           0        3.338932   -1.389029    0.964812
      3          6           0       -2.170392   -2.300867    0.433086
      4          6           0       -3.686666    0.402713   -0.131848
      5          6           0        2.178830    0.759882    0.129791
      6          6           0        2.236907   -0.838897    0.108138
      7          6           0        0.886786    1.280940   -0.454364
      8          6           0       -0.252571    0.973081    0.498169
      9          7           0        0.959048    2.763542   -0.715281
     10          8           0       -0.586439    1.650000    1.430018
     11          8           0       -0.955305   -0.031580    0.070283
     12         14           0       -2.272797   -0.699292   -0.552718
     13          1           0        3.244210   -0.901636   -1.686676
     14          1           0        1.446961   -1.105018   -1.821474
     15          1           0        2.524557   -2.519176   -1.493877
     16          1           0        4.346731   -1.191342    0.597776
     17          1           0        3.207469   -2.533723    0.811277
     18          1           0        3.348185   -0.963258    1.938763
     19          1           0       -2.094815   -2.076302    1.587392
     20          1           0       -1.172886   -2.723794    0.181013
     21          1           0       -2.881536   -3.096179    0.298673
     22          1           0       -3.574923    1.171598    0.708832
     23          1           0       -4.230456   -0.272802    0.414226
     24          1           0       -4.253425    0.879266   -0.971790
     25          1           0        2.999960    1.263260   -0.373218
     26          1           0        2.247970    0.950865    1.256253
     27          1           0        1.288584   -1.119451    0.474729
     28          1           0        0.499868    0.755048   -1.336254
     29          1           0        0.732018    3.225251    0.112267
     30          1           0        0.250835    3.160621   -1.378804
 ---------------------------------------------------------------------
 Rotational constants (GHZ):           1.0069982           0.5168345           0.4022126
 Standard basis: SVP (5D, 7F)
 There are   274 symmetry adapted cartesian basis functions of A   symmetry.
 There are   262 symmetry adapted basis functions of A   symmetry.
   262 basis functions,   438 primitive gaussians,   274 cartesian basis functions
    51 alpha electrons       51 beta electrons
       nuclear repulsion energy       861.1871129925 Hartrees.
 NAtoms=   30 NActive=   30 NUniq=   30 SFac= 1.00D+00 NAtFMM=   60 NAOKFM=F Big=F
 Integral buffers will be    131072 words long.
 Raffenetti 2 integral format.
 Two-electron integral symmetry is turned on.
 Nuclear repulsion after empirical dispersion term =      861.1596519202 Hartrees.
 One-electron integrals computed using PRISM.
 NBasis=   262 RedAO= T EigKep=  1.26D-03  NBF=   262
 NBsUse=   262 1.00D-06 EigRej= -1.00D+00 NBFU=   262
 ExpMin= 7.80D-02 ExpMax= 6.90D+03 ExpMxC= 1.04D+03 IAcc=3 IRadAn=         5 AccDes= 0.00D+00
 Harris functional with IExCor= 1009 and IRadAn=       5 diagonalized for initial guess.
 HarFok:  IExCor= 1009 AccDes= 0.00D+00 IRadAn=         5 IDoV= 1 UseB2=F ITyADJ=14
 ICtDFT=  3500011 ScaDFX=  1.000000  1.000000  1.000000  1.000000
 FoFCou: FMM=F IPFlag=           0 FMFlag=      100000 FMFlg1=           0
         NFxFlg=           0 DoJE=T BraDBF=F KetDBF=T FulRan=T
         wScrn=  0.000000 ICntrl=       500 IOpCl=  0 I1Cent=   200000004 NGrid=           0
         NMat0=    1 NMatS0=      1 NMatT0=    0 NMatD0=    1 NMtDS0=    0 NMtDT0=    0
 Petite list used in FoFCou.
 Requested convergence on RMS density matrix=1.00D-08 within  32 cycles.
 Requested convergence on MAX density matrix=1.00D-06.
 Requested convergence on             energy=1.00D-06.
 No special actions if energy rises.
 Integral accuracy reduced to 1.0D-05 until final iterations.
 EnCoef did     5 forward-backward iterations
 EnCoef did     4 forward-backward iterations
 Failed to achieve initial convergence to 1.0D-08 in 10 cycles.
 Switch to full accuracy anyway.
 SCF Done:  E(RPBE1PBE) =  -808.882369340     A.U. after   20 cycles
            NFock= 20  Conv=0.24D-08     -V/T= 2.0073
 QCSCF skips out because SCF is already converged.
 DoSCS=F DFT=T ScalE2(SS,OS)=  1.000000  1.000000
 Range of M.O.s used for correlation:     1   262
 NBasis=   262 NAE=    51 NBE=    51 NFC=     0 NFV=     0
 NROrb=    262 NOA=    51 NOB=    51 NVA=   211 NVB=   211

 **** Warning!!: The smallest alpha delta epsilon is  0.50131433D-01

 Symmetrizing basis deriv contribution to polar:
 IMax=3 JMax=2 DiffMx= 0.00D+00
 G2DrvN: will do    31 centers at a time, making    1 passes.
 Calling FoFCou, ICntrl=  3107 FMM=F I1Cent=   0 AccDes= 0.00D+00.
 End of G2Drv F.D. properties file   721 does not exist.
 End of G2Drv F.D. properties file   722 does not exist.
 End of G2Drv F.D. properties file   788 does not exist.
          IDoAtm=111111111111111111111111111111
          Differentiating once with respect to electric field.
                with respect to dipole field.
          Differentiating once with respect to nuclear coordinates.
 CalDSu exits because no D1Ps are significant.
          There are    93 degrees of freedom in the 1st order CPHF.  IDoFFX=6 NUNeed=     3.
     90 vectors produced by pass  0 Test12= 1.16D-14 1.08D-09 XBig12= 9.30D+02 2.90D+01.
 AX will form    90 AO Fock derivatives at one time.
     90 vectors produced by pass  1 Test12= 1.16D-14 1.08D-09 XBig12= 1.01D+02 1.17D+00.
     90 vectors produced by pass  2 Test12= 1.16D-14 1.08D-09 XBig12= 1.69D+00 2.23D-01.
     90 vectors produced by pass  3 Test12= 1.16D-14 1.08D-09 XBig12= 6.22D-03 1.05D-02.
     90 vectors produced by pass  4 Test12= 1.16D-14 1.08D-09 XBig12= 1.11D-05 3.24D-04.
     58 vectors produced by pass  5 Test12= 1.16D-14 1.08D-09 XBig12= 1.16D-08 8.48D-06.
     10 vectors produced by pass  6 Test12= 1.16D-14 1.08D-09 XBig12= 1.13D-11 2.59D-07.
      3 vectors produced by pass  7 Test12= 1.16D-14 1.08D-09 XBig12= 1.23D-14 9.88D-09.
 InvSVY:  IOpt=1 It=  1 EMax= 2.84D-14
 Solved reduced A of dimension   521 with    93 vectors.
 Isotropic polarizability for W=    0.000000      159.53 Bohr**3.
 End of Minotr F.D. properties file   721 does not exist.
 End of Minotr F.D. properties file   722 does not exist.
 End of Minotr F.D. properties file   788 does not exist.

 **********************************************************************

            Population analysis using the SCF density.

 **********************************************************************

 Orbital symmetries:
       Occupied  (A) (A) (A) (A) (A) (A) (A) (A) (A) (A) (A) (A)
                 (A) (A) (A) (A) (A) (A) (A) (A) (A) (A) (A) (A)
                 (A) (A) (A) (A) (A) (A) (A) (A) (A) (A) (A) (A)
                 (A) (A) (A) (A) (A) (A) (A) (A) (A) (A) (A) (A)
                 (A) (A) (A)
       Virtual   (A) (A) (A) (A) (A) (A) (A) (A) (A) (A) (A) (A)
                 (A) (A) (A) (A) (A) (A) (A) (A) (A) (A) (A) (A)
                 (A) (A) (A) (A) (A) (A) (A) (A) (A) (A) (A) (A)
                 (A) (A) (A) (A) (A) (A) (A) (A) (A) (A) (A) (A)
                 (A) (A) (A) (A) (A) (A) (A) (A) (A) (A) (A) (A)
                 (A) (A) (A) (A) (A) (A) (A) (A) (A) (A) (A) (A)
                 (A) (A) (A) (A) (A) (A) (A) (A) (A) (A) (A) (A)
                 (A) (A) (A) (A) (A) (A) (A) (A) (A) (A) (A) (A)
                 (A) (A) (A) (A) (A) (A) (A) (A) (A) (A) (A) (A)
                 (A) (A) (A) (A) (A) (A) (A) (A) (A) (A) (A) (A)
                 (A) (A) (A) (A) (A) (A) (A) (A) (A) (A) (A) (A)
                 (A) (A) (A) (A) (A) (A) (A) (A) (A) (A) (A) (A)
                 (A) (A) (A) (A) (A) (A) (A) (A) (A) (A) (A) (A)
                 (A) (A) (A) (A) (A) (A) (A) (A) (A) (A) (A) (A)
                 (A) (A) (A) (A) (A) (A) (A) (A) (A) (A) (A) (A)
                 (A) (A) (A) (A) (A) (A) (A) (A) (A) (A) (A) (A)
                 (A) (A) (A) (A) (A) (A) (A) (A) (A) (A) (A) (A)
                 (A) (A) (A) (A) (A) (A) (A)
 The electronic state is 1-A.
 Alpha  occ. eigenvalues --  -66.52501 -19.45194 -19.36076 -14.51552 -10.52367
 Alpha  occ. eigenvalues --  -10.42743 -10.42291 -10.41522 -10.35884 -10.35217
 Alpha  occ. eigenvalues --  -10.33411 -10.32064  -5.61036  -3.95070  -3.94831
 Alpha  occ. eigenvalues --   -3.94274  -1.31745  -1.20690  -1.03957  -0.95066
 Alpha  occ. eigenvalues --   -0.93736  -0.90195  -0.88597  -0.85105  -0.80052
 Alpha  occ. eigenvalues --   -0.77796  -0.70279  -0.68130  -0.67096  -0.65871
 Alpha  occ. eigenvalues --   -0.64320  -0.62698  -0.62004  -0.59820  -0.59603
 Alpha  occ. eigenvalues --   -0.58656  -0.57771  -0.57165  -0.56096  -0.55430
 Alpha  occ. eigenvalues --   -0.54361  -0.52840  -0.52108  -0.50291  -0.49380
 Alpha  occ. eigenvalues --   -0.48235  -0.46074  -0.44987  -0.43959  -0.42491
 Alpha  occ. eigenvalues --   -0.38914
 Alpha virt. eigenvalues --   -0.33900  -0.16482  -0.14189  -0.10759  -0.09670
 Alpha virt. eigenvalues --   -0.05766  -0.05144  -0.04783  -0.03370  -0.02377
 Alpha virt. eigenvalues --   -0.02172  -0.01074  -0.00405   0.00839   0.01711
 Alpha virt. eigenvalues --    0.02063   0.03117   0.04770   0.04928   0.05529
 Alpha virt. eigenvalues --    0.05945   0.07207   0.07496   0.08254   0.09225
 Alpha virt. eigenvalues --    0.10699   0.12528   0.13146   0.15122   0.16684
 Alpha virt. eigenvalues --    0.17040   0.19340   0.21628   0.22377   0.24246
 Alpha virt. eigenvalues --    0.26403   0.28077   0.30370   0.32019   0.32514
 Alpha virt. eigenvalues --    0.32854   0.33683   0.35909   0.36433   0.37311
 Alpha virt. eigenvalues --    0.39535   0.40090   0.40467   0.42899   0.44245
 Alpha virt. eigenvalues --    0.45519   0.46889   0.47342   0.49094   0.49296
 Alpha virt. eigenvalues --    0.50236   0.50563   0.51510   0.52156   0.52734
 Alpha virt. eigenvalues --    0.52776   0.53569   0.54152   0.54734   0.55197
 Alpha virt. eigenvalues --    0.56165   0.56377   0.57052   0.58861   0.59287
 Alpha virt. eigenvalues --    0.60415   0.61675   0.61714   0.62307   0.63092
 Alpha virt. eigenvalues --    0.64191   0.64313   0.65049   0.65969   0.67845
 Alpha virt. eigenvalues --    0.68293   0.70546   0.71815   0.73875   0.75127
 Alpha virt. eigenvalues --    0.75792   0.78710   0.79551   0.83902   0.88421
 Alpha virt. eigenvalues --    0.89746   0.90898   0.93208   0.94355   1.00129
 Alpha virt. eigenvalues --    1.02260   1.02896   1.04860   1.07252   1.08211
 Alpha virt. eigenvalues --    1.11279   1.11830   1.14189   1.17469   1.20123
 Alpha virt. eigenvalues --    1.22901   1.25182   1.26105   1.28973   1.31232
 Alpha virt. eigenvalues --    1.36208   1.36580   1.36830   1.39940   1.41161
 Alpha virt. eigenvalues --    1.42670   1.44787   1.45344   1.51966   1.54143
 Alpha virt. eigenvalues --    1.54534   1.56218   1.56971   1.58390   1.59093
 Alpha virt. eigenvalues --    1.60185   1.60853   1.63078   1.64427   1.65414
 Alpha virt. eigenvalues --    1.67325   1.68149   1.68696   1.69662   1.70020
 Alpha virt. eigenvalues --    1.71489   1.71864   1.72666   1.73493   1.73925
 Alpha virt. eigenvalues --    1.76304   1.77567   1.78701   1.78943   1.80615
 Alpha virt. eigenvalues --    1.82945   1.84220   1.84900   1.87529   1.87936
 Alpha virt. eigenvalues --    1.90258   1.90634   1.92678   1.94005   1.96042
 Alpha virt. eigenvalues --    2.00894   2.03560   2.04726   2.07511   2.08269
 Alpha virt. eigenvalues --    2.10056   2.13136   2.15723   2.19378   2.20014
 Alpha virt. eigenvalues --    2.21125   2.21820   2.22759   2.25063   2.26004
 Alpha virt. eigenvalues --    2.26366   2.28062   2.34765   2.34993   2.39805
 Alpha virt. eigenvalues --    2.40967   2.42711   2.44144   2.46165   2.48193
 Alpha virt. eigenvalues --    2.49818   2.52310   2.52817   2.55740   2.58700
 Alpha virt. eigenvalues --    2.61626   2.65365   2.68019   2.69420   2.69659
 Alpha virt. eigenvalues --    2.71710   2.75847   2.76389   2.78281   2.79585
 Alpha virt. eigenvalues --    2.80393   2.82981   2.84235   2.88218   2.89418
 Alpha virt. eigenvalues --    2.90856   2.91941   2.97478   3.01840   3.07124
 Alpha virt. eigenvalues --    3.09063   3.12715   3.18047   3.32604   3.47599
 Alpha virt. eigenvalues --    3.53560
          Condensed to atoms (all electrons):
               1          2          3          4          5          6
     1  C    4.666804  -0.064721  -0.000087  -0.000001  -0.049978   0.378217
     2  C   -0.064721   4.568798  -0.000004   0.000000  -0.056945   0.400968
     3  C   -0.000087  -0.000004   4.906413  -0.036028   0.000053  -0.000191
     4  C   -0.000001   0.000000  -0.036028   4.859773  -0.000036   0.000001
     5  C   -0.049978  -0.056945   0.000053  -0.000036   5.004550   0.306861
     6  C    0.378217   0.400968  -0.000191   0.000001   0.306861   5.028007
     7  C   -0.003165   0.007354  -0.000668  -0.000491   0.243266  -0.036490
     8  C   -0.002565  -0.000926  -0.000376  -0.000843  -0.051507   0.003868
     9  N   -0.000074  -0.000102  -0.000002  -0.000039  -0.071650   0.005490
    10  O   -0.000016  -0.000007  -0.000386  -0.001507  -0.003762   0.000348
    11  O   -0.000423   0.000108  -0.030976  -0.022191   0.000195  -0.000352
    12  Si   0.000736   0.000037   0.411997   0.411413   0.000821  -0.000454
    13  H    0.396563  -0.002517   0.000002  -0.000000  -0.005301  -0.040346
    14  H    0.365078   0.010662  -0.000300   0.000017  -0.010409  -0.031648
    15  H    0.408974  -0.005758   0.000007   0.000000   0.005636  -0.017246
    16  H   -0.010630   0.404080  -0.000000  -0.000000  -0.008736  -0.018700
    17  H   -0.004269   0.384814   0.000004   0.000000   0.010223  -0.034612
    18  H    0.009665   0.393667   0.000000   0.000000  -0.006588  -0.021854
    19  H   -0.000007   0.000005   0.365753  -0.001246   0.000028  -0.000014
    20  H    0.000273   0.000006   0.374754   0.002086  -0.000035  -0.000152
    21  H   -0.000001  -0.000000   0.390000   0.000417  -0.000001  -0.000000
    22  H    0.000000  -0.000000   0.000518   0.375886   0.000003  -0.000000
    23  H   -0.000000   0.000000  -0.001355   0.370818   0.000002   0.000000
    24  H    0.000000  -0.000000   0.001319   0.382801  -0.000000   0.000000
    25  H   -0.007475  -0.003581  -0.000000   0.000000   0.365993  -0.010903
    26  H    0.007652  -0.006037   0.000008   0.000000   0.367531  -0.024027
    27  H   -0.047118  -0.022947  -0.000069   0.000056  -0.033569   0.362201
    28  H    0.001849   0.000549   0.000119  -0.000153  -0.019535  -0.005417
    29  H   -0.000010   0.000003   0.000001   0.000012  -0.004173   0.000113
    30  H   -0.000012   0.000010  -0.000001  -0.000034   0.010573  -0.000505
               7          8          9         10         11         12
     1  C   -0.003165  -0.002565  -0.000074  -0.000016  -0.000423   0.000736
     2  C    0.007354  -0.000926  -0.000102  -0.000007   0.000108   0.000037
     3  C   -0.000668  -0.000376  -0.000002  -0.000386  -0.030976   0.411997
     4  C   -0.000491  -0.000843  -0.000039  -0.001507  -0.022191   0.411413
     5  C    0.243266  -0.051507  -0.071650  -0.003762   0.000195   0.000821
     6  C   -0.036490   0.003868   0.005490   0.000348  -0.000352  -0.000454
     7  C    5.136921   0.246835   0.401277  -0.087506  -0.098515   0.010723
     8  C    0.246835   4.753543  -0.039384   0.702518   0.222006  -0.023106
     9  N    0.401277  -0.039384   6.175356  -0.008245   0.001384   0.000734
    10  O   -0.087506   0.702518  -0.008245   7.615367  -0.074905   0.005041
    11  O   -0.098515   0.222006   0.001384  -0.074905   7.957619   0.366035
    12  Si   0.010723  -0.023106   0.000734   0.005041   0.366035  12.048372
    13  H   -0.003142   0.000334  -0.000082   0.000000  -0.000011  -0.000023
    14  H    0.002903  -0.001642  -0.000002  -0.000012   0.001080   0.002445
    15  H    0.000031   0.000054   0.000003   0.000000  -0.000011  -0.000075
    16  H    0.000112   0.000074  -0.000003   0.000000  -0.000005   0.000001
    17  H   -0.000541  -0.000011   0.000003   0.000000   0.000003  -0.000016
    18  H    0.000754  -0.000237  -0.000008  -0.000014   0.000010  -0.000002
    19  H   -0.000001  -0.000263   0.000001   0.000194  -0.002215  -0.000662
    20  H    0.000034  -0.000119  -0.000000   0.000002   0.000149  -0.019782
    21  H    0.000009   0.000011  -0.000000   0.000001   0.001433  -0.021135
    22  H    0.000312   0.002516   0.000020   0.004541  -0.003999  -0.004115
    23  H   -0.000019  -0.000150   0.000001   0.000015   0.001152  -0.008979
    24  H    0.000042   0.000101  -0.000005   0.000012   0.000869  -0.023044
    25  H   -0.013416   0.009291   0.008899  -0.000113  -0.000364  -0.000058
    26  H   -0.023249  -0.011619  -0.001322   0.004868   0.000729  -0.000026
    27  H   -0.021360   0.011916   0.000190  -0.000401   0.004623  -0.001229
    28  H    0.366621  -0.057938  -0.029780   0.004443   0.011584   0.000840
    29  H   -0.034010  -0.011220   0.372083   0.015513   0.000841  -0.000088
    30  H   -0.036102   0.007042   0.351808  -0.000183  -0.000022   0.000495
              13         14         15         16         17         18
     1  C    0.396563   0.365078   0.408974  -0.010630  -0.004269   0.009665
     2  C   -0.002517   0.010662  -0.005758   0.404080   0.384814   0.393667
     3  C    0.000002  -0.000300   0.000007  -0.000000   0.000004   0.000000
     4  C   -0.000000   0.000017   0.000000  -0.000000   0.000000   0.000000
     5  C   -0.005301  -0.010409   0.005636  -0.008736   0.010223  -0.006588
     6  C   -0.040346  -0.031648  -0.017246  -0.018700  -0.034612  -0.021854
     7  C   -0.003142   0.002903   0.000031   0.000112  -0.000541   0.000754
     8  C    0.000334  -0.001642   0.000054   0.000074  -0.000011  -0.000237
     9  N   -0.000082  -0.000002   0.000003  -0.000003   0.000003  -0.000008
    10  O    0.000000  -0.000012   0.000000   0.000000   0.000000  -0.000014
    11  O   -0.000011   0.001080  -0.000011  -0.000005   0.000003   0.000010
    12  Si  -0.000023   0.002445  -0.000075   0.000001  -0.000016  -0.000002
    13  H    0.603324  -0.015074  -0.020575   0.006258  -0.002049  -0.000314
    14  H   -0.015074   0.705305  -0.024726   0.000266   0.000151  -0.000768
    15  H   -0.020575  -0.024726   0.581607  -0.001099   0.004925   0.000245
    16  H    0.006258   0.000266  -0.001099   0.617899  -0.026039  -0.028058
    17  H   -0.002049   0.000151   0.004925  -0.026039   0.627394  -0.012058
    18  H   -0.000314  -0.000768   0.000245  -0.028058  -0.012058   0.620862
    19  H    0.000000   0.000006  -0.000001   0.000000  -0.000003  -0.000001
    20  H   -0.000007   0.000158   0.000073   0.000000   0.000008   0.000000
    21  H    0.000000   0.000001  -0.000000   0.000000  -0.000000   0.000000
    22  H    0.000000   0.000000  -0.000000  -0.000000  -0.000000   0.000000
    23  H    0.000000  -0.000000  -0.000000   0.000000  -0.000000  -0.000000
    24  H   -0.000000  -0.000001   0.000000   0.000000   0.000000   0.000000
    25  H    0.005949  -0.000304   0.000022   0.003461  -0.000162  -0.001038
    26  H   -0.000030  -0.000308  -0.000244  -0.001147   0.000010   0.008307
    27  H    0.011169  -0.009894  -0.003677   0.008840  -0.010957  -0.007400
    28  H    0.000855   0.005783  -0.000589  -0.000004  -0.000026  -0.000026
    29  H    0.000005  -0.000011   0.000000   0.000000  -0.000000  -0.000002
    30  H    0.000011   0.000034  -0.000001   0.000000  -0.000000   0.000000
              19         20         21         22         23         24
     1  C   -0.000007   0.000273  -0.000001   0.000000  -0.000000   0.000000
     2  C    0.000005   0.000006  -0.000000  -0.000000   0.000000  -0.000000
     3  C    0.365753   0.374754   0.390000   0.000518  -0.001355   0.001319
     4  C   -0.001246   0.002086   0.000417   0.375886   0.370818   0.382801
     5  C    0.000028  -0.000035  -0.000001   0.000003   0.000002  -0.000000
     6  C   -0.000014  -0.000152  -0.000000  -0.000000   0.000000   0.000000
     7  C   -0.000001   0.000034   0.000009   0.000312  -0.000019   0.000042
     8  C   -0.000263  -0.000119   0.000011   0.002516  -0.000150   0.000101
     9  N    0.000001  -0.000000  -0.000000   0.000020   0.000001  -0.000005
    10  O    0.000194   0.000002   0.000001   0.004541   0.000015   0.000012
    11  O   -0.002215   0.000149   0.001433  -0.003999   0.001152   0.000869
    12  Si  -0.000662  -0.019782  -0.021135  -0.004115  -0.008979  -0.023044
    13  H    0.000000  -0.000007   0.000000   0.000000   0.000000  -0.000000
    14  H    0.000006   0.000158   0.000001   0.000000  -0.000000  -0.000001
    15  H   -0.000001   0.000073  -0.000000  -0.000000  -0.000000   0.000000
    16  H    0.000000   0.000000   0.000000  -0.000000   0.000000   0.000000
    17  H   -0.000003   0.000008  -0.000000  -0.000000  -0.000000   0.000000
    18  H   -0.000001   0.000000   0.000000   0.000000  -0.000000   0.000000
    19  H    0.476748  -0.010284  -0.011519  -0.000111  -0.000347  -0.000011
    20  H   -0.010284   0.517714  -0.005615  -0.000060   0.000023  -0.000044
    21  H   -0.011519  -0.005615   0.508991  -0.000021  -0.000007  -0.000024
    22  H   -0.000111  -0.000060  -0.000021   0.471261  -0.015473  -0.006141
    23  H   -0.000347   0.000023  -0.000007  -0.015473   0.549432  -0.004756
    24  H   -0.000011  -0.000044  -0.000024  -0.006141  -0.004756   0.489206
    25  H   -0.000001   0.000001   0.000000  -0.000000  -0.000000   0.000000
    26  H   -0.000004   0.000002  -0.000000  -0.000003  -0.000000  -0.000000
    27  H    0.000091   0.002128   0.000037  -0.000003  -0.000003  -0.000000
    28  H   -0.000001  -0.000076  -0.000000  -0.000109   0.000015  -0.000023
    29  H   -0.000000   0.000000  -0.000000  -0.000024  -0.000001  -0.000001
    30  H    0.000000  -0.000000  -0.000000   0.000020   0.000001  -0.000004
              25         26         27         28         29         30
     1  C   -0.007475   0.007652  -0.047118   0.001849  -0.000010  -0.000012
     2  C   -0.003581  -0.006037  -0.022947   0.000549   0.000003   0.000010
     3  C   -0.000000   0.000008  -0.000069   0.000119   0.000001  -0.000001
     4  C    0.000000   0.000000   0.000056  -0.000153   0.000012  -0.000034
     5  C    0.365993   0.367531  -0.033569  -0.019535  -0.004173   0.010573
     6  C   -0.010903  -0.024027   0.362201  -0.005417   0.000113  -0.000505
     7  C   -0.013416  -0.023249  -0.021360   0.366621  -0.034010  -0.036102
     8  C    0.009291  -0.011619   0.011916  -0.057938  -0.011220   0.007042
     9  N    0.008899  -0.001322   0.000190  -0.029780   0.372083   0.351808
    10  O   -0.000113   0.004868  -0.000401   0.004443   0.015513  -0.000183
    11  O   -0.000364   0.000729   0.004623   0.011584   0.000841  -0.000022
    12  Si  -0.000058  -0.000026  -0.001229   0.000840  -0.000088   0.000495
    13  H    0.005949  -0.000030   0.011169   0.000855   0.000005   0.000011
    14  H   -0.000304  -0.000308  -0.009894   0.005783  -0.000011   0.000034
    15  H    0.000022  -0.000244  -0.003677  -0.000589   0.000000  -0.000001
    16  H    0.003461  -0.001147   0.008840  -0.000004   0.000000   0.000000
    17  H   -0.000162   0.000010  -0.010957  -0.000026  -0.000000  -0.000000
    18  H   -0.001038   0.008307  -0.007400  -0.000026  -0.000002   0.000000
    19  H   -0.000001  -0.000004   0.000091  -0.000001  -0.000000   0.000000
    20  H    0.000001   0.000002   0.002128  -0.000076   0.000000  -0.000000
    21  H    0.000000  -0.000000   0.000037  -0.000000  -0.000000  -0.000000
    22  H   -0.000000  -0.000003  -0.000003  -0.000109  -0.000024   0.000020
    23  H   -0.000000  -0.000000  -0.000003   0.000015  -0.000001   0.000001
    24  H    0.000000  -0.000000  -0.000000  -0.000023  -0.000001  -0.000004
    25  H    0.583704  -0.019077   0.007063  -0.004953  -0.001319  -0.000148
    26  H   -0.019077   0.614492  -0.006955   0.008490   0.003279  -0.000472
    27  H    0.007063  -0.006955   0.751324  -0.001352   0.000023   0.000049
    28  H   -0.004953   0.008490  -0.001352   0.681837   0.008957  -0.010355
    29  H   -0.001319   0.003279   0.000023   0.008957   0.555044  -0.027013
    30  H   -0.000148  -0.000472   0.000049  -0.010355  -0.027013   0.572131
 Mulliken charges:
               1
     1  C   -0.045260
     2  C   -0.007517
     3  C   -0.380505
     4  C   -0.340712
     5  C    0.006489
     6  C   -0.243160
     7  C   -0.058517
     8  C    0.241799
     9  N   -0.166549
    10  O   -0.175807
    11  O   -0.335832
    12  Si   0.843103
    13  H    0.065002
    14  H    0.001210
    15  H    0.072425
    16  H    0.053429
    17  H    0.063207
    18  H    0.044858
    19  H    0.183863
    20  H    0.138761
    21  H    0.137422
    22  H    0.174982
    23  H    0.109633
    24  H    0.159705
    25  H    0.078528
    26  H    0.079150
    27  H    0.007224
    28  H    0.038397
    29  H    0.121996
    30  H    0.132676
 Sum of Mulliken charges =   1.00000
 Mulliken charges with hydrogens summed into heavy atoms:
               1
     1  C    0.093377
     2  C    0.153977
     3  C    0.079541
     4  C    0.103608
     5  C    0.164167
     6  C   -0.235936
     7  C   -0.020120
     8  C    0.241799
     9  N    0.088124
    10  O   -0.175807
    11  O   -0.335832
    12  Si   0.843103
 APT charges:
               1
     1  C   -0.008495
     2  C    0.038936
     3  C   -0.164642
     4  C   -0.282030
     5  C    0.087017
     6  C    0.073674
     7  C    0.220095
     8  C    0.376557
     9  N   -0.800368
    10  O   -0.390938
    11  O   -0.266932
    12  Si   1.110634
    13  H    0.025148
    14  H   -0.060958
    15  H    0.030709
    16  H    0.013787
    17  H   -0.004581
    18  H    0.009634
    19  H    0.036214
    20  H    0.067422
    21  H    0.097599
    22  H    0.051038
    23  H    0.065165
    24  H    0.135056
    25  H    0.021717
    26  H    0.009048
    27  H   -0.068346
    28  H    0.015801
    29  H    0.302399
    30  H    0.259640
 Sum of APT charges =   1.00000
 APT charges with hydrogens summed into heavy atoms:
               1
     1  C   -0.013597
     2  C    0.057776
     3  C    0.036593
     4  C   -0.030772
     5  C    0.117781
     6  C    0.005328
     7  C    0.235897
     8  C    0.376557
     9  N   -0.238328
    10  O   -0.390938
    11  O   -0.266932
    12  Si   1.110634
 Electronic spatial extent (au):  <R**2>=           2983.1322
 Charge=              1.0000 electrons
 Dipole moment (field-independent basis, Debye):
    X=             -8.8775    Y=             -2.8965    Z=             -2.8795  Tot=              9.7719
 Quadrupole moment (field-independent basis, Debye-Ang):
   XX=            -42.2895   YY=            -65.6708   ZZ=            -75.5697
   XY=              4.2903   XZ=              6.1850   YZ=             -2.5910
 Traceless Quadrupole moment (field-independent basis, Debye-Ang):
   XX=             18.8872   YY=             -4.4941   ZZ=            -14.3930
   XY=              4.2903   XZ=              6.1850   YZ=             -2.5910
 Octapole moment (field-independent basis, Debye-Ang**2):
  XXX=            -97.3502  YYY=              6.0633  ZZZ=             -1.8161  XYY=            -29.1758
  XXY=            -17.1605  XXZ=             -3.1855  XZZ=            -18.4372  YZZ=             -2.0049
  YYZ=             -4.9123  XYZ=              9.4327
 Hexadecapole moment (field-independent basis, Debye-Ang**3):
 XXXX=          -2010.7671 YYYY=           -959.5610 ZZZZ=           -378.3206 XXXY=             -0.1109
 XXXZ=             13.6647 YYYX=             16.9090 YYYZ=            -11.7846 ZZZX=             14.9898
 ZZZY=            -11.4521 XXYY=           -544.1042 XXZZ=           -433.3422 YYZZ=           -242.2790
 XXYZ=             12.8886 YYXZ=              1.9390 ZZXY=             13.2228
 N-N= 8.611596519202D+02 E-N=-3.604234316500D+03  KE= 8.030471694830D+02
  Exact polarizability: 204.033  49.318 171.088   5.065   1.202 103.475
 Approx polarizability: 326.593 151.169 317.976  20.905  24.890 165.654
 Calling FoFJK, ICntrl=    100127 FMM=F ISym2X=0 I1Cent= 0 IOpClX= 0 NMat=1 NMatS=1 NMatT=0.
 Full mass-weighted force constant matrix:
 Low frequencies --- -663.2865 -594.4355 -331.1243 -210.3833 -142.9141  -90.1029
 Low frequencies ---  -75.5961  -70.4209  -46.8680
 ******    8 imaginary frequencies (negative Signs) ****** 
 Diagonal vibrational polarizability:
      257.6134606     107.7698864      54.2904242
 Harmonic frequencies (cm**-1), IR intensities (KM/Mole), Raman scattering
 activities (A**4/AMU), depolarization ratios for plane and unpolarized
 incident light, reduced masses (AMU), force constants (mDyne/A),
 and normal coordinates:
                           1         2         3         4         5
                           A         A         A         A         A
       Frequencies ---  -662.3143 -593.6266 -326.3138 -204.8260 -142.0547
    Reduced masses ---     1.0272    1.0745    1.3868    1.8127    6.3623
   Force constants ---     0.2655    0.2231    0.0870    0.0448    0.0756
    IR Intensities ---     2.2275  184.3280    2.3299    1.5957   15.2649
 Coord Atom Element:
   1     1     6          0.00067   0.00264   0.00693   0.16049  -0.00655
   2     1     6         -0.00006   0.00385   0.01875   0.04849   0.01680
   3     1     6          0.00104   0.00166  -0.00731  -0.07249  -0.03394
   1     2     6         -0.00230  -0.00155   0.00621  -0.14299  -0.00952
   2     2     6         -0.00385   0.00376   0.00909  -0.05131   0.00991
   3     2     6          0.00233   0.00317  -0.00747   0.07210  -0.03381
   1     3     6         -0.00414   0.00152   0.01304   0.00758  -0.14468
   2     3     6          0.00475  -0.00044  -0.03901  -0.00118  -0.05621
   3     3     6         -0.00588  -0.00288   0.00307   0.02944  -0.07932
   1     4     6         -0.02084   0.00040   0.08153  -0.00612   0.20842
   2     4     6         -0.00579  -0.00179   0.06258  -0.00870   0.13508
   3     4     6         -0.01430  -0.00192  -0.06171   0.03287   0.03711
   1     5     6          0.00012  -0.00453  -0.00448   0.00377  -0.08266
   2     5     6         -0.00191   0.00777   0.00906   0.00357  -0.01416
   3     5     6          0.00359   0.00139   0.00377  -0.03032  -0.00687
   1     6     6         -0.00068  -0.00130   0.00386  -0.00122  -0.03023
   2     6     6         -0.00181   0.00347   0.01010   0.00380  -0.01237
   3     6     6          0.00169   0.00143  -0.00369  -0.07269  -0.02598
   1     7     6          0.00149  -0.00893  -0.00749  -0.00461  -0.08537
   2     7     6         -0.00060   0.01209   0.00451   0.00237   0.00379
   3     7     6          0.00272   0.00515   0.00742  -0.01523  -0.02252
   1     8     6         -0.00027  -0.00894  -0.00830   0.00477  -0.07081
   2     8     6         -0.00112  -0.00417  -0.01127   0.00464   0.01447
   3     8     6          0.00243   0.01053  -0.00762  -0.00243   0.01734
   1     9     7          0.00301  -0.02682  -0.00886  -0.01047  -0.06711
   2     9     7         -0.00005  -0.04000   0.00903   0.00192  -0.01046
   3     9     7          0.00454  -0.04254   0.01336  -0.01991  -0.00732
   1    10     8         -0.00106  -0.00083  -0.01744   0.01423  -0.12725
   2    10     8         -0.00044   0.00135  -0.02986   0.00577   0.15783
   3    10     8          0.00159   0.00812   0.00306   0.00004  -0.10423
   1    11     8         -0.00160  -0.00366  -0.01561  -0.00214   0.16934
   2    11     8         -0.00052  -0.00073  -0.00428   0.00448  -0.25883
   3    11     8          0.00413   0.01040  -0.03677   0.00800   0.29835
   1    12    14          0.00303   0.00261  -0.02766  -0.00525   0.12467
   2    12    14          0.00769  -0.00094  -0.05090  -0.00454   0.01751
   3    12    14         -0.01708  -0.01068   0.04362   0.02665  -0.02588
   1    13     1          0.00158   0.00408   0.00451   0.34930  -0.00238
   2    13     1         -0.00024   0.00288   0.02570  -0.11950   0.02579
   3    13     1          0.00283   0.00356  -0.00305   0.10989  -0.01275
   1    14     1          0.00173   0.00449   0.00639   0.30939  -0.00073
   2    14     1          0.00152   0.00325   0.01949   0.24301   0.02629
   3    14     1          0.00019  -0.00020  -0.00578  -0.20830  -0.03911
   1    15     1         -0.00017   0.00311   0.01208  -0.06348  -0.00632
   2    15     1          0.00002   0.00359   0.02057   0.02123   0.02015
   3    15     1         -0.00026   0.00416  -0.01484  -0.08556  -0.05446
   1    16     1         -0.00162  -0.00062   0.00543  -0.04978  -0.00866
   2    16     1         -0.00374   0.00343   0.01793   0.05626   0.06815
   3    16     1          0.00427   0.00543  -0.00460   0.38584   0.00161
   1    17     1         -0.00279  -0.00230   0.01143  -0.11023   0.02604
   2    17     1         -0.00367   0.00423   0.00922  -0.04150   0.01005
   3    17     1          0.00091   0.00089  -0.01471  -0.06810  -0.07337
   1    18     1         -0.00381  -0.00399   0.00316  -0.49154  -0.05729
   2    18     1         -0.00547  -0.00002  -0.00058  -0.22378  -0.04574
   3    18     1          0.00303   0.00478  -0.00339   0.14524  -0.01032
   1    19     1          0.00047  -0.00019   0.01212   0.00856  -0.04774
   2    19     1         -0.00304  -0.00510  -0.03575   0.00099  -0.08925
   3    19     1         -0.00493  -0.00263   0.00390   0.02911  -0.08245
   1    20     1         -0.00438   0.00128   0.01672   0.00946  -0.26596
   2    20     1          0.00740  -0.00021  -0.03318   0.00376  -0.29818
   3    20     1         -0.01115  -0.00394   0.00631   0.02850  -0.13974
   1    21     1         -0.00299   0.00268   0.01393   0.01272  -0.38965
   2    21     1          0.00387  -0.00066  -0.04015  -0.00683   0.16852
   3    21     1         -0.00769  -0.00786   0.00791   0.03478  -0.09187
   1    22     1          0.05568  -0.00727   0.38333  -0.00332   0.17893
   2    22     1          0.24545  -0.00354   0.21439  -0.00927   0.09923
   3    22     1         -0.25419   0.00006  -0.23904   0.03303   0.07127
   1    23     1          0.52478   0.00421  -0.31154  -0.00775   0.23502
   2    23     1          0.02580  -0.00843   0.67282  -0.00723   0.06871
   3    23     1          0.60349  -0.00666   0.30754   0.03285  -0.01733
   1    24     1         -0.34425   0.00066   0.19225  -0.00661   0.19912
   2    24     1         -0.33160  -0.00437   0.15356  -0.00603   0.13689
   3    24     1          0.03874  -0.00337  -0.09042   0.03460   0.04506
   1    25     1          0.00097  -0.00069  -0.00798  -0.00254  -0.08677
   2    25     1         -0.00168   0.00015   0.01686   0.02305   0.01362
   3    25     1          0.00519  -0.00091   0.00586  -0.02080   0.01301
   1    26     1         -0.00056  -0.00372  -0.00603   0.00359  -0.09394
   2    26     1         -0.00313  -0.00169   0.00486  -0.01605  -0.02582
   3    26     1          0.00391   0.00406   0.00485  -0.02648  -0.00365
   1    27     1         -0.00151  -0.00183   0.00509  -0.07379  -0.01107
   2    27     1         -0.00189   0.00432   0.00086  -0.00151  -0.06849
   3    27     1         -0.00040  -0.00063  -0.00682  -0.26043  -0.03094
   1    28     1          0.00169  -0.01814   0.00001  -0.01617  -0.10752
   2    28     1          0.00051   0.02751   0.01059  -0.00150  -0.00391
   3    28     1          0.00193  -0.00152   0.00067  -0.00921  -0.01164
   1    29     1         -0.00185   0.89277   0.01559  -0.01670  -0.10277
   2    29     1         -0.00331   0.16073   0.00053   0.00462  -0.01133
   3    29     1          0.00510   0.07895   0.02414  -0.02303  -0.01510
   1    30     1          0.00212  -0.25701  -0.02805  -0.00999  -0.01853
   2    30     1         -0.00045   0.09394   0.01209  -0.00308   0.00880
   3    30     1          0.00511   0.29875   0.03556  -0.02335  -0.04698
                           6         7         8         9        10
                           A         A         A         A         A
       Frequencies ---   -85.7996  -48.8608  -28.2311   97.0013  109.2621
    Reduced masses ---     5.3974    2.5920    3.0393    2.4100    1.8238
   Force constants ---     0.0234    0.0036    0.0014    0.0134    0.0128
    IR Intensities ---    21.4248    2.6207    2.8280    2.9688    0.8626
 Coord Atom Element:
   1     1     6         -0.02011   0.06912   0.14346   0.04201   0.13127
   2     1     6         -0.00350  -0.09220   0.10759  -0.01491  -0.02591
   3     1     6         -0.03562   0.04438  -0.01461   0.03954  -0.03058
   1     2     6         -0.00581  -0.02100   0.17583   0.00932   0.05155
   2     2     6         -0.03003   0.11815   0.02192   0.00362  -0.00233
   3     2     6         -0.04759   0.08130  -0.03773   0.04005  -0.04989
   1     3     6          0.14467  -0.09064  -0.16426   0.11956  -0.00449
   2     3     6         -0.00530  -0.00785   0.02373  -0.03338   0.02127
   3     3     6         -0.02636  -0.06905  -0.00433  -0.16378   0.05542
   1     4     6          0.00896   0.01456  -0.06226   0.02041  -0.04194
   2     4     6         -0.00688   0.04914   0.04575   0.06331  -0.00925
   3     4     6         -0.20673   0.01808  -0.00516   0.20407  -0.04753
   1     5     6         -0.04411   0.02087   0.01376  -0.02147  -0.01426
   2     5     6         -0.03558   0.04334  -0.00421  -0.01735  -0.04754
   3     5     6         -0.00599  -0.12158   0.09610   0.04136  -0.00251
   1     6     6         -0.02503   0.01433   0.11820   0.00117   0.01593
   2     6     6         -0.03204   0.03702   0.00849  -0.01726  -0.04592
   3     6     6         -0.02490  -0.01534   0.02521   0.03741  -0.03256
   1     7     6         -0.06862  -0.03031   0.01045  -0.00988  -0.00970
   2     7     6         -0.06933  -0.00511  -0.08537  -0.03515  -0.00960
   3     7     6          0.01526  -0.04531   0.02965  -0.00494   0.02218
   1     8     6         -0.01288   0.03838  -0.00433  -0.03272  -0.03949
   2     8     6          0.04265  -0.06280  -0.04188   0.00353   0.02410
   3     8     6          0.14154   0.02827   0.02267  -0.01642  -0.00130
   1     9     7         -0.09044  -0.09262  -0.02798  -0.01010   0.03639
   2     9     7         -0.09226   0.00995  -0.11151  -0.05533   0.00541
   3     9     7         -0.08163   0.00636  -0.11145  -0.08223   0.08770
   1    10     8          0.17297   0.12113   0.01120  -0.04162  -0.07817
   2    10     8          0.12294  -0.10989  -0.03246   0.02743   0.07455
   3    10     8          0.15241   0.09187   0.02072  -0.03629  -0.04991
   1    11     8         -0.16290  -0.00970  -0.05583  -0.01882  -0.02951
   2    11     8          0.12328  -0.02252  -0.00350  -0.00520   0.00766
   3    11     8          0.26720   0.02234   0.00667  -0.01120   0.02418
   1    12    14          0.04507  -0.01182  -0.06835  -0.04781  -0.02264
   2    12    14         -0.02200   0.02459   0.03543   0.03752  -0.00296
   3    12    14         -0.06859  -0.02945   0.00127  -0.01364   0.01483
   1    13     1         -0.01665   0.18093   0.09667   0.08099   0.31020
   2    13     1          0.00348  -0.24590   0.20461  -0.04442  -0.18709
   3    13     1         -0.01831   0.07900   0.01551   0.08436   0.14012
   1    14     1         -0.01453   0.14322   0.12239   0.07409   0.26852
   2    14     1          0.01173  -0.03596   0.08533   0.01582   0.15511
   3    14     1         -0.03749  -0.04909   0.00992   0.00400  -0.15554
   1    15     1         -0.02473  -0.06719   0.22484   0.00619  -0.07762
   2    15     1          0.00004  -0.12871   0.13143  -0.02003  -0.05273
   3    15     1         -0.06148   0.16172  -0.09730   0.04170  -0.03615
   1    16     1         -0.01468  -0.03222   0.16269  -0.00877  -0.01342
   2    16     1          0.00570  -0.15154   0.20935  -0.07709  -0.24905
   3    16     1         -0.05144  -0.10197   0.03260  -0.05495  -0.36695
   1    17     1          0.01624  -0.14688   0.28590  -0.02629  -0.05995
   2    17     1         -0.02970   0.10448   0.02420  -0.00060  -0.01414
   3    17     1         -0.07351   0.35253  -0.17711   0.12009   0.18571
   1    18     1         -0.00376   0.16710   0.08557   0.11434   0.41153
   2    18     1         -0.06492   0.48645  -0.16996   0.11174   0.31528
   3    18     1         -0.03313  -0.07331   0.04279  -0.00549  -0.18375
   1    19     1         -0.00861  -0.02455  -0.07769  -0.04951  -0.04890
   2    19     1         -0.04292  -0.01841   0.03347  -0.11829   0.02954
   3    19     1         -0.01401  -0.07110  -0.01135  -0.13551   0.05608
   1    20     1          0.26309  -0.15444  -0.24430   0.27482   0.03231
   2    20     1          0.20925  -0.12540  -0.13017   0.28830   0.08210
   3    20     1          0.06525  -0.11708  -0.05408  -0.10356   0.09440
   1    21     1          0.36575  -0.21300  -0.31517   0.40640   0.06390
   2    21     1         -0.18028   0.09876   0.14973  -0.26071  -0.03702
   3    21     1         -0.16767  -0.04631   0.05341  -0.33768   0.03573
   1    22     1          0.02604   0.01928  -0.07672   0.10467  -0.06025
   2    22     1          0.03550   0.03646   0.04105   0.02327   0.00317
   3    22     1         -0.24774   0.02808   0.00088   0.22539  -0.05545
   1    23     1         -0.07692   0.01424  -0.04651  -0.01439  -0.03567
   2    23     1          0.11492   0.04089   0.02250   0.08345  -0.00974
   3    23     1         -0.13922   0.00743  -0.01820   0.19289  -0.04125
   1    24     1          0.06423   0.00790  -0.06705   0.00067  -0.03388
   2    24     1         -0.02147   0.06102   0.03951   0.13731  -0.02907
   3    24     1         -0.25133   0.02914  -0.00517   0.25766  -0.06373
   1    25     1         -0.06400  -0.01880   0.00460  -0.01226  -0.01886
   2    25     1         -0.01826   0.03120   0.06701  -0.00460  -0.02160
   3    25     1         -0.02095  -0.19771   0.15178   0.06879   0.01546
   1    26     1         -0.03009   0.06920  -0.04762  -0.05274  -0.01325
   2    26     1         -0.03864   0.09568  -0.03303  -0.02125  -0.07432
   3    26     1         -0.00729  -0.13517   0.10518   0.04369   0.00285
   1    27     1         -0.01898  -0.01011   0.14897  -0.00275   0.00456
   2    27     1         -0.05265   0.10029  -0.11082  -0.03138  -0.08238
   3    27     1         -0.02249  -0.02859   0.01608   0.01754  -0.08784
   1    28     1         -0.13365  -0.06979   0.05482   0.01279  -0.02919
   2    28     1         -0.13451   0.01165  -0.16802  -0.07972   0.02466
   3    28     1          0.08044  -0.04023   0.06211   0.01267   0.00778
   1    29     1         -0.18936  -0.09769  -0.05385  -0.02516   0.04759
   2    29     1          0.00835  -0.05018   0.03438   0.03421  -0.07485
   3    29     1         -0.16255   0.03849  -0.19987  -0.13621   0.13589
   1    30     1         -0.02068  -0.10309  -0.01138   0.01472   0.02617
   2    30     1         -0.15370   0.02066  -0.19911  -0.09510   0.05764
   3    30     1         -0.19152   0.02420  -0.17982  -0.13124   0.12799
                          11        12        13        14        15
                           A         A         A         A         A
       Frequencies ---   145.4128  163.2593  174.2679  218.0628  240.2367
    Reduced masses ---     2.0877    1.9363    1.3958    3.2591    3.1569
   Force constants ---     0.0260    0.0304    0.0250    0.0913    0.1073
    IR Intensities ---    27.6496   13.4710    0.7069   68.9863    7.6516
 Coord Atom Element:
   1     1     6          0.01067  -0.00742   0.05766  -0.01433  -0.03628
   2     1     6         -0.04727  -0.11710  -0.00491  -0.03324   0.14033
   3     1     6          0.00224   0.04063  -0.04707  -0.01665   0.03523
   1     2     6          0.06111   0.09550  -0.02152  -0.00621  -0.01302
   2     2     6          0.04234   0.06224   0.00975  -0.01195   0.03880
   3     2     6         -0.00747  -0.01093   0.06730  -0.00088  -0.00491
   1     3     6          0.02244  -0.00986  -0.01192  -0.01644  -0.07193
   2     3     6          0.11100  -0.06041  -0.01407  -0.01971  -0.04343
   3     3     6          0.12328  -0.10317  -0.01572  -0.09541  -0.02097
   1     4     6          0.02488  -0.04562  -0.02723  -0.10539  -0.04886
   2     4     6          0.09587  -0.03330  -0.00192   0.00683  -0.00919
   3     4     6         -0.01436   0.01007   0.00820  -0.16523  -0.03590
   1     5     6         -0.00913   0.00883   0.00830   0.07402  -0.08765
   2     5     6         -0.00865  -0.01923  -0.01907   0.03688  -0.00394
   3     5     6         -0.04078  -0.06578  -0.03589  -0.05703   0.05837
   1     6     6          0.03493   0.03708   0.05015   0.04117  -0.07779
   2     6     6         -0.00725  -0.01730  -0.01400   0.02712   0.02106
   3     6     6         -0.01341   0.00011  -0.03730  -0.03439   0.07034
   1     7     6         -0.02998  -0.00482   0.00021   0.01899   0.00081
   2     7     6         -0.02290   0.00204  -0.02185   0.02395  -0.00609
   3     7     6         -0.01439  -0.01596  -0.02597   0.05517  -0.13203
   1     8     6         -0.01951  -0.00614  -0.00009   0.03045   0.04711
   2     8     6         -0.06490   0.03231  -0.00063  -0.00648  -0.03692
   3     8     6         -0.00717  -0.00974  -0.01766   0.05942  -0.11413
   1     9     7         -0.06989   0.03594   0.01537   0.02147   0.07751
   2     9     7         -0.00837   0.02952   0.00005   0.00928   0.02792
   3     9     7          0.07691   0.07658   0.06154  -0.08021   0.03041
   1    10     8         -0.02219   0.00932   0.02489  -0.10270   0.21209
   2    10     8         -0.06458   0.07820   0.04804  -0.05544  -0.01484
   3    10     8         -0.00576  -0.03600  -0.04184   0.03973  -0.07338
   1    11     8          0.02037  -0.04922  -0.03026   0.10241   0.01819
   2    11     8         -0.07699   0.04334   0.00264  -0.09172  -0.08897
   3    11     8         -0.00128   0.02608   0.03352   0.03340   0.05560
   1    12    14         -0.02097  -0.02553  -0.02506  -0.01400  -0.03552
   2    12    14          0.02724  -0.00212  -0.00089   0.07612  -0.01147
   3    12    14         -0.06968   0.03014   0.01411   0.15855   0.05231
   1    13     1         -0.00045   0.09469  -0.27678  -0.03916   0.06696
   2    13     1         -0.05905  -0.29202   0.39936  -0.04710   0.08252
   3    13     1         -0.03881   0.02282  -0.22261  -0.08941   0.18034
   1    14     1         -0.00386   0.04810  -0.16674  -0.04338   0.05257
   2    14     1         -0.07195  -0.02809  -0.38923  -0.06970   0.30873
   3    14     1          0.01203  -0.00058   0.10046   0.01023  -0.00977
   1    15     1          0.01395  -0.18607   0.56961  -0.00646  -0.17299
   2    15     1         -0.05283  -0.15553   0.06549  -0.04065   0.14198
   3    15     1          0.04148   0.13699  -0.06964   0.03593  -0.08675
   1    16     1          0.08128   0.11139   0.02185   0.02221  -0.05956
   2    16     1          0.26345   0.42145  -0.09835  -0.06907   0.08815
   3    16     1          0.17270   0.23528   0.12460   0.04414  -0.10330
   1    17     1          0.19295   0.31580  -0.08637  -0.05370   0.02812
   2    17     1          0.04328   0.06215   0.00761  -0.00872   0.03613
   3    17     1         -0.15410  -0.24022   0.16171   0.01385  -0.02397
   1    18     1         -0.17196  -0.22883  -0.09776  -0.04135   0.09285
   2    18     1         -0.16013  -0.25694   0.14453   0.00920   0.01130
   3    18     1          0.07781   0.12335   0.01144  -0.00946   0.00622
   1    19     1         -0.21878   0.05074  -0.03694  -0.22344  -0.29889
   2    19     1          0.15622  -0.11308  -0.03601  -0.15826  -0.12675
   3    19     1          0.12545  -0.09455  -0.00963  -0.05021   0.01042
   1    20     1          0.21051  -0.05347   0.00749   0.15007   0.07916
   2    20     1          0.42589  -0.11867   0.02494   0.29128   0.20871
   3    20     1          0.31980  -0.17412  -0.00697   0.02119   0.13609
   1    21     1          0.36762  -0.09055   0.02256   0.26334   0.18079
   2    21     1         -0.17801   0.01255  -0.03894  -0.22466  -0.22839
   3    21     1         -0.00119  -0.10439  -0.05078  -0.35386  -0.26059
   1    22     1          0.00113  -0.02823  -0.02394  -0.27532  -0.11535
   2    22     1          0.05583  -0.01069   0.00464   0.08566   0.01662
   3    22     1          0.02412  -0.01252   0.00177  -0.20694  -0.04809
   1    23     1          0.09295  -0.09112  -0.03969  -0.04517  -0.02503
   2    23     1         -0.00511   0.03048   0.01555  -0.03584  -0.02816
   3    23     1         -0.07109   0.04362   0.01758  -0.15444  -0.03438
   1    24     1         -0.00135  -0.02793  -0.02119  -0.07636  -0.04091
   2    24     1          0.09341  -0.02896  -0.00197  -0.13548  -0.05865
   3    24     1          0.00388  -0.00072   0.00379  -0.26587  -0.06952
   1    25     1         -0.02750  -0.01149  -0.00128   0.01601   0.00280
   2    25     1          0.00210  -0.03336   0.00906   0.03320  -0.02590
   3    25     1         -0.05986  -0.11234  -0.02398  -0.15552   0.18478
   1    26     1          0.00284   0.05080  -0.00477   0.16990  -0.23157
   2    26     1          0.00503   0.01208  -0.01935   0.04937   0.01717
   3    26     1         -0.04404  -0.07397  -0.03460  -0.06506   0.06362
   1    27     1          0.06235   0.07476   0.03535   0.02949  -0.05884
   2    27     1         -0.03756  -0.02931  -0.02451   0.09091  -0.04364
   3    27     1          0.03233   0.08907  -0.08201  -0.01675   0.06742
   1    28     1         -0.03574  -0.04358  -0.01613  -0.00830   0.04513
   2    28     1          0.01415   0.04591   0.00834  -0.00996   0.02701
   3    28     1         -0.03386  -0.02818  -0.03822   0.08473  -0.17106
   1    29     1         -0.05061   0.04415   0.02315   0.01308   0.07769
   2    29     1         -0.09799  -0.09667  -0.11544   0.14582  -0.19847
   3    29     1          0.13198   0.14972   0.12861  -0.15940   0.15827
   1    30     1         -0.06940   0.00941  -0.00243  -0.02153   0.05605
   2    30     1          0.04056   0.09342   0.05815  -0.09103   0.15159
   3    30     1          0.10604   0.14023   0.11330  -0.09429   0.12237
                          16        17        18        19        20
                           A         A         A         A         A
       Frequencies ---   266.5998  309.2349  336.0853  384.2923  396.9328
    Reduced masses ---     3.2547    2.3943    2.7070    2.2001    2.8708
   Force constants ---     0.1363    0.1349    0.1802    0.1914    0.2665
    IR Intensities ---     8.6601    6.7296    2.3784    2.3171   14.3540
 Coord Atom Element:
   1     1     6         -0.07508   0.02500  -0.10196  -0.05781   0.01170
   2     1     6          0.07891  -0.00670   0.11128  -0.09057  -0.07259
   3     1     6          0.03386   0.03445  -0.05829  -0.09871   0.01269
   1     2     6         -0.00973   0.00830  -0.02837  -0.02960  -0.00432
   2     2     6         -0.13478  -0.06643   0.15567   0.10485  -0.06026
   3     2     6          0.00283  -0.00128   0.05915  -0.00249  -0.03766
   1     3     6         -0.04851   0.18044   0.10355  -0.02256   0.06502
   2     3     6         -0.02335   0.05341   0.02158   0.00131  -0.00743
   3     3     6         -0.00372  -0.02823   0.00366  -0.00165   0.02834
   1     4     6         -0.00884  -0.06377  -0.03440   0.00737  -0.06079
   2     4     6         -0.00515   0.03343   0.02857  -0.01187   0.02472
   3     4     6          0.01751  -0.05654  -0.01463  -0.01005   0.00252
   1     5     6          0.20121  -0.04190   0.04854  -0.00404  -0.00483
   2     5     6          0.11873  -0.01337  -0.04485   0.00666   0.13032
   3     5     6         -0.03412   0.03031  -0.05069   0.17465   0.07068
   1     6     6          0.09294  -0.01180  -0.01642   0.02914   0.09642
   2     6     6          0.10377  -0.03140   0.02139   0.01639   0.11998
   3     6     6          0.03045   0.04070  -0.02432  -0.11286  -0.05026
   1     7     6          0.08957  -0.02333   0.03038   0.05748  -0.01562
   2     7     6         -0.06363  -0.02550  -0.10202  -0.02410   0.05456
   3     7     6          0.03745  -0.04755   0.03471   0.05122  -0.03034
   1     8     6          0.04523   0.02046  -0.00092   0.03928  -0.06195
   2     8     6         -0.05959  -0.02639  -0.06744  -0.00970  -0.02048
   3     8     6         -0.00074  -0.04534   0.03578  -0.01057  -0.02967
   1     9     7         -0.13663  -0.15446   0.14122  -0.07859   0.14889
   2     9     7         -0.05257  -0.00676  -0.12856  -0.04485   0.06368
   3     9     7          0.07285   0.02893   0.03639   0.01832  -0.03439
   1    10     8          0.01164   0.04126  -0.05077   0.04091   0.01187
   2    10     8          0.09854  -0.00745  -0.01425   0.03573  -0.04448
   3    10     8         -0.12129  -0.05235  -0.01875  -0.04298   0.01479
   1    11     8         -0.04576   0.05293  -0.02009   0.02575  -0.04855
   2    11     8         -0.00112  -0.04320  -0.05139   0.01871  -0.10066
   3    11     8          0.02758  -0.00897   0.04252  -0.03630   0.11611
   1    12    14         -0.02654  -0.01516  -0.03272   0.01730  -0.07139
   2    12    14         -0.02788   0.07634   0.01590   0.00556  -0.02135
   3    12    14         -0.02875   0.05036  -0.02036   0.02218  -0.05467
   1    13     1          0.00512   0.01850  -0.03834  -0.01470   0.01810
   2    13     1         -0.09056   0.02850   0.03290  -0.25579  -0.21775
   3    13     1         -0.02337   0.06861  -0.02844  -0.23111  -0.17154
   1    14     1         -0.04525   0.03020  -0.06563  -0.06715  -0.02470
   2    14     1          0.21041  -0.02224   0.29985  -0.08196  -0.18814
   3    14     1          0.06803   0.01778  -0.00341  -0.07910   0.00401
   1    15     1         -0.28996   0.06636  -0.29104  -0.21039  -0.03735
   2    15     1          0.04941   0.00145   0.10947  -0.13634  -0.12334
   3    15     1          0.04680   0.01718  -0.20243   0.06151   0.29576
   1    16     1          0.03599  -0.00668  -0.01437   0.01211   0.06124
   2    16     1         -0.34794  -0.06283   0.17233   0.07317  -0.23681
   3    16     1          0.00694  -0.03995   0.10736   0.09357   0.04062
   1    17     1         -0.20720   0.00125   0.01990  -0.02297  -0.17243
   2    17     1         -0.11299  -0.06199   0.13866   0.09269  -0.03966
   3    17     1         -0.02187  -0.04075   0.18124   0.12334  -0.07616
   1    18     1          0.08987   0.07367  -0.15948  -0.19359  -0.00128
   2    18     1         -0.16366  -0.12411   0.33425   0.28510  -0.11803
   3    18     1          0.01460   0.02258  -0.01473  -0.07714  -0.01358
   1    19     1         -0.13123   0.56136   0.33505  -0.07812   0.23782
   2    19     1         -0.03863   0.08560   0.07626  -0.02622   0.06141
   3    19     1          0.00381  -0.05695  -0.02263   0.00829   0.00088
   1    20     1         -0.00317   0.00060   0.00205  -0.00160   0.00538
   2    20     1          0.04237  -0.15760  -0.09132   0.02162  -0.05311
   3    20     1          0.06015  -0.36685  -0.19726   0.04465  -0.12370
   1    21     1          0.02713  -0.08600  -0.03669   0.00394  -0.00154
   2    21     1         -0.07837   0.23191   0.10455  -0.01025   0.01519
   3    21     1         -0.08030   0.32495   0.25017  -0.07121   0.23832
   1    22     1          0.02793  -0.13829  -0.03580  -0.00692  -0.03370
   2    22     1         -0.01384   0.07569   0.02543   0.00208   0.01437
   3    22     1          0.01851  -0.08116  -0.01162  -0.02027   0.00810
   1    23     1         -0.02958  -0.06684  -0.03515   0.00336  -0.07983
   2    23     1          0.01683   0.04567   0.02431  -0.00145   0.04357
   3    23     1          0.02365  -0.04284  -0.01972  -0.00134   0.00781
   1    24     1         -0.00733  -0.03727  -0.02912   0.01307  -0.05391
   2    24     1          0.02041  -0.02656   0.02671  -0.02502   0.04686
   3    24     1          0.03109  -0.11015  -0.01950  -0.02153   0.00974
   1    25     1          0.11444  -0.00592   0.00060   0.07135  -0.02108
   2    25     1          0.11229  -0.00870  -0.08588   0.19600   0.34469
   3    25     1         -0.18181   0.09260  -0.16778   0.48626   0.25854
   1    26     1          0.28702  -0.10775   0.13500  -0.20717  -0.16654
   2    26     1          0.18379  -0.01563   0.01545  -0.23554   0.01266
   3    26     1         -0.05321   0.03513  -0.06869   0.23558   0.10553
   1    27     1          0.04899  -0.00821  -0.00922   0.02991   0.07947
   2    27     1          0.29954  -0.05864   0.03856  -0.00798   0.17098
   3    27     1          0.06987   0.02731   0.00820  -0.12756  -0.05527
   1    28     1          0.13419   0.00557   0.00050   0.15816   0.03836
   2    28     1         -0.09842  -0.02885  -0.10345  -0.08181   0.05006
   3    28     1          0.03921  -0.05618   0.04720   0.04657  -0.05377
   1    29     1         -0.09264  -0.10183   0.08741  -0.04290   0.09790
   2    29     1         -0.13032  -0.13497  -0.12452  -0.01439   0.08516
   3    29     1          0.12664   0.11347   0.02100   0.00948  -0.05749
   1    30     1         -0.20243  -0.23842   0.20025  -0.12207   0.24415
   2    30     1         -0.07957  -0.00036  -0.08548  -0.10540   0.13296
   3    30     1          0.12985   0.12340  -0.00250   0.03231  -0.09876
                          21        22        23        24        25
                           A         A         A         A         A
       Frequencies ---   440.5024  491.1844  508.6084  596.0420  635.1676
    Reduced masses ---     2.2324    2.5420    2.9880    5.1762    3.1004
   Force constants ---     0.2552    0.3613    0.4554    1.0835    0.7370
    IR Intensities ---     2.1722   92.7364    0.1331   35.8254   58.2896
 Coord Atom Element:
   1     1     6         -0.08012   0.00522  -0.00244   0.00676   0.00402
   2     1     6          0.03905   0.01570  -0.01534   0.01405  -0.00218
   3     1     6         -0.06550   0.01902  -0.03972   0.02001  -0.00487
   1     2     6          0.11971  -0.00897   0.01777   0.00999   0.00677
   2     2     6         -0.07478  -0.00953   0.02174  -0.01522  -0.00383
   3     2     6          0.14073  -0.02404   0.03420  -0.00839   0.00274
   1     3     6         -0.00406   0.01217   0.02282   0.01372  -0.05005
   2     3     6          0.00436  -0.12004  -0.15834  -0.14603   0.20202
   3     3     6         -0.00163   0.02512   0.06209   0.07522  -0.13449
   1     4     6          0.00921   0.12942  -0.01278  -0.11839   0.17724
   2     4     6         -0.00691   0.19425   0.17827   0.05471  -0.05101
   3     4     6         -0.00390  -0.05101  -0.02624   0.01256  -0.04619
   1     5     6         -0.05346  -0.04515   0.07917  -0.10187  -0.03059
   2     5     6         -0.03693   0.03733  -0.04568   0.01099   0.00904
   3     5     6         -0.02688  -0.00892   0.03034  -0.03982   0.00079
   1     6     6          0.16451   0.02704  -0.03936   0.03725   0.00768
   2     6     6         -0.07961   0.07164  -0.10591   0.05743   0.00590
   3     6     6          0.00095  -0.00978   0.01237  -0.01249  -0.00253
   1     7     6         -0.06416  -0.04941   0.09208  -0.14747  -0.05712
   2     7     6          0.02774  -0.07089   0.11707   0.00014   0.02563
   3     7     6         -0.05768  -0.05123   0.08314   0.11412   0.10548
   1     8     6         -0.03822  -0.02953   0.02556  -0.07105  -0.04002
   2     8     6          0.04856   0.01671  -0.03157   0.05640  -0.03781
   3     8     6         -0.02689  -0.01558   0.00278   0.08424   0.01457
   1     9     7         -0.01888   0.03603  -0.06230   0.00529   0.00762
   2     9     7          0.06177  -0.06965   0.14402  -0.14367   0.00345
   3     9     7         -0.02680   0.02038  -0.02957   0.08653   0.02564
   1    10     8         -0.00716  -0.03862   0.04151   0.15611   0.08624
   2    10     8         -0.01586  -0.03260   0.02326   0.19829   0.06656
   3    10     8          0.03049   0.01654  -0.03254   0.07294  -0.01634
   1    11     8          0.00005  -0.06016  -0.03090   0.20833  -0.02097
   2    11     8          0.01471   0.08709  -0.03596  -0.08692  -0.05630
   3    11     8         -0.00772  -0.06197   0.01794  -0.20631  -0.05064
   1    12    14          0.01066   0.01495  -0.07800  -0.03196  -0.08166
   2    12    14          0.00077  -0.01805  -0.04969  -0.00192  -0.08662
   3    12    14          0.00363   0.06840  -0.02975  -0.06193   0.07197
   1    13     1         -0.04645   0.00817  -0.00898   0.00626   0.00146
   2    13     1         -0.07795  -0.02967   0.06277  -0.03915  -0.00589
   3    13     1         -0.15380  -0.03638   0.05267  -0.05386  -0.01521
   1    14     1         -0.09432  -0.00203   0.01218  -0.01504   0.00038
   2    14     1          0.32250  -0.02952   0.06073  -0.02380   0.00020
   3    14     1          0.13343   0.00474  -0.01873   0.03328   0.00187
   1    15     1         -0.39006  -0.00181   0.01511  -0.01722   0.00235
   2    15     1          0.03465  -0.00075   0.01234  -0.00423  -0.00403
   3    15     1         -0.29948   0.12124  -0.20950   0.12201   0.00313
   1    16     1          0.22391   0.01183  -0.01980   0.06182   0.01933
   2    16     1         -0.31102  -0.07084   0.13605  -0.14956  -0.03092
   3    16     1          0.29163  -0.00165  -0.00421   0.05693   0.02135
   1    17     1         -0.04784  -0.07417   0.13490  -0.11113  -0.01493
   2    17     1         -0.07501   0.00039   0.00472  -0.00282  -0.00281
   3    17     1          0.28499  -0.05991   0.08903  -0.02417   0.00760
   1    18     1         -0.04947   0.00969  -0.01203  -0.00915  -0.00555
   2    18     1          0.12473  -0.06291   0.10445  -0.04940  -0.00065
   3    18     1          0.05897  -0.00182  -0.00019   0.00617   0.00163
   1    19     1         -0.01962   0.08906   0.16260  -0.02994   0.16946
   2    19     1          0.00267  -0.23162  -0.20433  -0.19502   0.34263
   3    19     1         -0.00036   0.04525   0.06232   0.08927  -0.17681
   1    20     1         -0.00062   0.00149   0.00260   0.00540  -0.01250
   2    20     1          0.00219  -0.06659  -0.09162  -0.15160   0.34164
   3    20     1          0.01528  -0.11983  -0.13721   0.05908  -0.24053
   1    21     1         -0.00380   0.02613   0.04402  -0.01495   0.09717
   2    21     1          0.00745  -0.12950  -0.19675  -0.10559   0.00961
   3    21     1         -0.01961  -0.00435   0.15015  -0.03230   0.24205
   1    22     1          0.00548  -0.14621  -0.17157  -0.21701   0.13868
   2    22     1         -0.00674   0.08017   0.10200   0.13736  -0.14299
   3    22     1         -0.00321   0.08788   0.06393  -0.04085   0.03413
   1    23     1          0.01180   0.54292   0.24242  -0.17828   0.35283
   2    23     1         -0.00923  -0.35794  -0.16446   0.12057  -0.26722
   3    23     1         -0.00435  -0.31514  -0.19031   0.03368  -0.13408
   1    24     1          0.00735  -0.02224  -0.10279  -0.06626   0.07205
   2    24     1         -0.00865  -0.00738   0.06054  -0.00560  -0.09377
   3    24     1         -0.00351  -0.05339  -0.02798  -0.06507   0.01078
   1    25     1         -0.06610  -0.07991   0.14765  -0.26406  -0.11236
   2    25     1          0.08114   0.14875  -0.22125   0.09908   0.00748
   3    25     1          0.06793   0.04636  -0.03460  -0.21456  -0.13291
   1    26     1         -0.13545  -0.12560   0.19324   0.02009   0.08567
   2    26     1         -0.06396   0.04128  -0.06936   0.07644   0.03341
   3    26     1         -0.01578  -0.00346   0.02624  -0.06075  -0.01183
   1    27     1          0.21287   0.02523  -0.04169   0.07043   0.02021
   2    27     1         -0.12149   0.07274  -0.10453  -0.01656  -0.02867
   3    27     1          0.09656  -0.00939   0.00551   0.01030   0.00397
[...]
 .00000088,-0.00000455,-0.00000079,-0.00000144,0.00000410,0.00000131,0.
 00000181,-0.00000863,-0.00000148,-0.00000453,0.00000007,0.00000279,0.0
 0000071,0.00026928,0.00001950,0.00017987,-0.00010607,-0.00020147,-0.00
 006690,0.00012568,0.00004316,0.00003318,0.01733091,-0.00291286,0.01637
 748,-0.02054234,0.00722913,-0.01499701,-0.02463482,0.04788830,-0.00000
 297,-0.00001728,-0.00001402,0.00000198,-0.00003550,-0.00001076,0.00149
 274,0.00056549,-0.00023905,-0.11961343,0.02338740,-0.18101917,0.000049
 57,-0.00002931,0.00006175,-0.00002179,0.00007812,0.00002022,-0.0000127
 5,-0.00009946,-0.00028226,0.00012058,0.00169453,-0.00022529,-0.0000658
 5,0.00023042,0.00012153,-0.00011230,-0.00038601,0.00023305,0.00217837,
 -0.00302044,0.00019188,0.00495765,-0.00086305,0.00521011,0.00000977,-0
 .00000607,-0.00000043,-0.00000064,0.00001149,0.00001409,-0.00000937,-0
 .00000031,0.00000345,0.00000893,-0.00000254,0.00000299,-0.00001439,0.0
 0000085,-0.00000557,-0.00000135,0.00000353,0.00000037,-0.00012967,-0.0
 0014774,0.00000701,0.00025561,0.00019909,0.00026307,0.00008773,0.00001
 862,0.00000928,-0.00863672,0.00022455,-0.00808456,-0.01161021,0.008511
 50,-0.00903758,0.13103566,-0.03014054,0.19282473,0.00127722,0.00060153
 ,-0.00097262,0.00137157,0.00018541,0.00031471,0.00012844,0.00009336,0.
 00006551,-0.00005542,0.00007711,-0.00006081,-0.07188903,0.07029655,0.0
 6203059,0.00934496,-0.01341006,-0.01330998,-0.01688246,0.02156782,0.01
 777032,-0.00401494,-0.00126958,-0.00583900,0.00321196,-0.00016023,0.00
 068662,-0.00009498,0.00007495,0.00203239,0.00031238,0.00295096,0.00111
 125,0.00022238,-0.00122298,0.00031216,-0.00008429,0.00052631,0.0005042
 4,-0.00002980,0.00000548,0.00006064,-0.00006883,0.00019265,0.00001858,
 -0.00034174,0.00037230,0.00019795,-0.00008017,0.00022032,0.00024936,-0
 .00007672,-0.00000918,0.00000319,-0.00002878,0.00003179,-0.00006005,-0
 .00000673,0.00006971,0.00000020,0.00002141,0.00000547,-0.00002057,0.00
 006922,-0.00003295,-0.00003123,0.00001261,0.00000346,-0.00000129,0.000
 00018,0.00001229,0.00000708,0.08092358,0.00150074,0.00124556,-0.000648
 44,0.00037754,0.00055032,0.00058932,0.00001430,0.00000160,-0.00008676,
 0.00003314,0.00007479,-0.00006933,0.07512398,-0.19847238,-0.13934604,0
 .00890608,-0.01310343,-0.01118502,0.00459677,-0.00780035,-0.00785885,0
 .00078561,-0.00090772,0.00175540,-0.00173108,0.00073821,-0.00012186,-0
 .00016697,0.00028098,-0.00028515,0.00008385,0.00008408,-0.00027444,-0.
 00010273,-0.00011061,0.00013120,-0.00066963,-0.00010518,0.00082045,-0.
 00006687,-0.00006284,-0.00002710,-0.00012346,0.00040620,0.00008615,-0.
 00038242,0.00032887,-0.00020035,-0.00005237,0.00013947,0.00016695,-0.0
 0014739,0.00000288,-0.00000687,-0.00004216,-0.00002290,0.00001906,-0.0
 0000314,0.00005644,-0.00001736,0.00002455,0.00000446,0.00001350,0.0000
 3032,-0.00004284,-0.00000690,0.00000459,0.00001806,-0.00000439,-0.0000
 1336,0.00000019,0.00000081,-0.07915097,0.20916086,-0.00063490,0.000805
 12,0.00069151,0.00012474,-0.00018928,-0.00007509,0.00004490,0.00002728
 ,0.00003327,-0.00001275,0.00000243,0.00001150,0.06660922,-0.14061876,-
 0.16761605,0.00012770,0.00128657,-0.00039003,-0.00755893,0.00900357,0.
 00731793,-0.00175560,-0.00046733,-0.00286693,0.00049961,0.00043996,0.0
 0009654,-0.00018096,-0.00030914,0.00178087,0.00055204,0.00074688,0.000
 34842,0.00001707,-0.00026934,0.00006075,-0.00007107,-0.00045295,0.0003
 7983,-0.00002252,0.00001166,0.00003958,-0.00004397,-0.00003354,-0.0000
 0726,-0.00031176,-0.00011993,0.00001528,-0.00017015,0.00011085,0.00009
 705,0.00016098,-0.00013245,-0.00002496,0.00000068,0.00002287,-0.000020
 38,0.00000196,0.00000731,0.00000562,-0.00000509,0.00000438,-0.00000645
 ,0.00000347,0.00000479,-0.00001081,0.00000253,0.00000044,0.00000019,0.
 00000375,0.00000032,-0.00000004,-0.06552209,0.14811900,0.17254084,-0.0
 0305094,-0.00343711,-0.00125381,0.00002150,-0.00087196,0.00210587,-0.0
 0002474,-0.00002012,0.00000307,0.00001499,0.00003777,0.00003959,-0.051
 96953,-0.00222811,0.01760282,-0.00606161,-0.01029490,0.01731037,0.0020
 1333,0.01417585,-0.02436681,0.00199082,0.00162316,-0.00309794,0.000600
 86,-0.00042016,0.00104561,0.00004297,-0.00081784,0.00075880,-0.0003815
 9,-0.00028325,-0.00010168,-0.00010337,-0.00000066,0.00003653,0.0001631
 7,0.00002083,-0.00062555,0.00016404,-0.00000519,-0.00012518,0.00005202
 ,-0.00070067,0.00112781,-0.00007964,0.00005031,0.00000381,0.00027416,0
 .00020425,-0.00009650,-0.00019629,0.00022160,-0.00095312,0.00002007,0.
 00001877,0.00001173,-0.00000023,0.00000201,0.00001538,0.00000129,-0.00
 000285,0.00000833,-0.00002434,0.00001950,-0.00000217,-0.00002510,-0.00
 000377,0.00000013,-0.00000166,-0.00000817,-0.00000303,-0.00136047,-0.0
 0503037,0.00809311,0.06235327,-0.00262072,-0.00315126,-0.00199812,0.00
 107797,0.00121671,0.00059485,0.00001640,0.00007770,-0.00002461,-0.0000
 2679,0.00000745,-0.00003356,-0.00056884,-0.07528335,0.06095601,-0.0083
 6855,-0.01335870,0.02086233,-0.00012093,-0.00759784,0.00779033,-0.0005
 9814,-0.00102989,0.00257853,-0.00020742,0.00016817,-0.00025337,0.00006
 980,0.00031478,-0.00074898,0.00016095,0.00035497,-0.00028524,0.0000052
 0,-0.00010505,0.00020931,-0.00009106,0.00017250,-0.00028078,0.00024075
 ,0.00012843,-0.00027446,-0.00019669,-0.00033076,0.00120442,0.00000034,
 0.00004322,-0.00017821,0.00058777,-0.00002020,-0.00001004,-0.00047024,
 0.00048188,-0.00056996,0.00000627,-0.00004958,-0.00001047,-0.00000776,
 -0.00001507,0.00003015,-0.00000177,0.00000598,-0.00000956,0.00002496,-
 0.00001314,0.00000196,0.00000789,0.00000023,0.00000125,-0.00000569,0.0
 0000782,0.00000662,0.00164894,0.01002794,-0.01844171,0.00637322,0.0872
 9646,-0.00045248,-0.00026266,0.00054518,-0.00105169,-0.00164726,0.0013
 2363,-0.00001784,-0.00002358,0.00005808,0.00000743,0.00000040,0.000067
 79,0.01584568,0.06309177,-0.21771017,-0.00003462,0.00003789,-0.0001083
 1,0.00160734,0.00378275,-0.00576155,0.00093565,-0.00042337,-0.00084330
 ,-0.00041637,-0.00036027,0.00057402,-0.00050448,-0.00065873,0.00109161
 ,-0.00009037,0.00000060,0.00013783,0.00006035,-0.00000973,-0.00014393,
 -0.00022946,0.00008165,0.00027630,0.00001246,-0.00010126,-0.00002827,-
 0.00008635,0.00007071,0.00028337,-0.00000452,0.00014517,-0.00015321,-0
 .00011647,-0.00009478,0.00024417,0.00059372,0.00016658,0.00022070,0.00
 001552,0.00002421,-0.00000165,-0.00000418,-0.00001125,-0.00001076,-0.0
 0000061,-0.00000328,0.00000080,-0.00001241,0.00002582,0.00000158,-0.00
 002727,-0.00001157,0.00000080,0.00000894,-0.00000086,-0.00000378,0.001
 30512,0.00920399,-0.01338207,-0.01586426,-0.07253055,0.23224437,-0.005
 06975,0.00638842,0.00553492,-0.01534800,0.01730889,0.01347584,0.000051
 75,0.00021869,-0.00018326,-0.00002697,0.00005173,-0.00001868,0.0075215
 4,-0.01898105,-0.01275677,-0.14445858,0.14163240,0.10387080,0.00068964
 ,-0.00039027,-0.00065225,-0.00140718,-0.00035396,0.00038371,0.00026896
 ,0.00006997,0.00006126,-0.00005426,-0.00000734,-0.00013252,-0.00311091
 ,0.00083505,-0.00053391,-0.00015339,0.00023002,0.00030484,0.00023874,-
 0.00126212,0.00187277,0.00102626,-0.00056334,-0.00050196,-0.00014845,0
 .00017161,-0.00006791,-0.00348174,0.00098341,-0.00369427,0.00067813,-0
 .00008531,0.00072957,0.00113408,-0.00031440,-0.00014977,0.00002248,-0.
 00012697,-0.00002285,0.00006663,-0.00021142,0.00008194,-0.00007692,-0.
 00000158,-0.00002860,0.00000194,0.00000046,-0.00000835,-0.00001342,0.0
 0000674,-0.00000115,-0.00002548,0.00000354,0.00001191,-0.00260559,-0.0
 0326709,-0.00035847,0.00071869,0.00084598,0.00002739,0.16351541,-0.008
 14254,0.01045496,0.01088921,0.00381653,-0.00599351,-0.00441456,0.00003
 060,-0.00027903,0.00004911,0.00010358,-0.00020507,0.00011886,0.0096600
 7,-0.02155421,-0.01503936,0.14181577,-0.20705869,-0.13064124,0.0010928
 4,0.00069832,-0.00028238,-0.00228191,-0.00023997,-0.00093788,-0.000157
 77,0.00048040,0.00041464,-0.00000206,-0.00010880,0.00042911,0.00260886
 ,-0.00106107,0.00110080,-0.00015020,0.00122456,-0.00062216,-0.00137516
 ,-0.00010588,0.00308155,-0.00019138,0.00075768,-0.00064073,-0.00007083
 ,0.00027651,-0.00058253,0.00111948,0.00082925,0.00163212,-0.00038807,0
 .00103350,0.00045424,-0.00021577,-0.00006078,-0.00015702,-0.00002686,0
 .00009066,0.00005763,0.00001025,0.00001210,-0.00009473,-0.00000209,-0.
 00000789,0.00000626,-0.00007767,0.00003389,0.00001947,0.00001415,-0.00
 001016,-0.00000360,0.00003304,-0.00001808,-0.00002444,-0.00388085,-0.0
 0282984,0.00049846,0.00051109,0.00038937,0.00024407,-0.14358818,0.2232
 4218,0.01533586,-0.01766535,-0.01831507,-0.01351524,0.01506283,0.01032
 531,0.00002839,-0.00028999,-0.00002682,0.00015721,-0.00008119,0.000101
 03,0.00253160,-0.00562224,-0.00360836,0.10312564,-0.12955406,-0.126024
 37,0.00062923,-0.00027429,0.00013373,-0.00159958,-0.00144940,0.0004817
 4,-0.00004016,0.00048222,0.00016199,0.00013241,0.00023584,-0.00021772,
 0.00189059,-0.00009431,0.00055492,-0.00089519,0.00111236,-0.00050540,0
 .00234694,0.00271952,-0.00518127,-0.00029223,-0.00020555,0.00087868,0.
 00011058,0.00021557,0.00057810,-0.00338923,0.00115009,-0.00194021,0.00
 096481,0.00017138,0.00058298,0.00089158,-0.00008717,0.00096839,0.00002
 056,-0.00002675,0.00004016,0.00005350,0.00025599,0.00010146,0.00003684
 ,0.00000486,-0.00004267,-0.00003510,0.00000021,0.00002590,-0.00000545,
 0.00000506,0.00001148,0.00003345,-0.00000852,-0.00002462,-0.00086223,-
 0.00095084,0.00061408,-0.00030961,0.00033993,0.00047417,-0.10727074,0.
 13464761,0.14014300,-0.00148469,0.00072885,-0.00079930,0.00003784,-0.0
 0010266,0.00022654,-0.00010776,-0.00008232,0.00000476,-0.00004958,-0.0
 0020106,-0.00000453,0.00412483,0.01655498,-0.02224275,0.00198782,0.000
 41919,0.00041560,-0.04454468,-0.00489166,0.00091710,-0.00170813,-0.008
 30298,0.01775442,-0.00512646,-0.01362881,0.01343870,-0.00253770,0.0016
 4669,0.00207328,-0.00006851,-0.00142682,0.00062967,0.00023269,0.001563
 35,0.00001227,-0.00005200,0.00005717,0.00000266,-0.00041506,-0.0013321
 6,0.00068188,0.00051040,-0.00030115,0.00040714,0.00004761,0.00004753,0
 .00000181,-0.00005337,-0.00004367,0.00000678,0.00017321,-0.00001732,0.
 00022380,-0.00000155,-0.00002287,0.00003761,-0.00001181,-0.00002385,-0
 .00005362,-0.00001037,-0.00001446,0.00000202,-0.00002068,-0.00000534,0
 .00004281,0.00003199,0.00000784,0.00000156,-0.00000681,0.00002096,0.00
 000340,0.00047997,0.00002839,0.00048776,-0.00468240,0.00234123,-0.0007
 9423,-0.00004741,-0.00032650,-0.00013155,0.05372204,-0.00070468,-0.000
 05842,-0.00012306,-0.00001656,-0.00004939,0.00003979,-0.00014651,-0.00
 032665,0.00023674,0.00001376,-0.00024371,0.00033315,0.00046299,-0.0038
 1499,0.00781156,-0.00097273,-0.00047295,-0.00026235,-0.01055469,-0.194
 11570,0.14057770,0.00096195,0.00647597,-0.00889627,-0.00669019,-0.0157
 8784,0.01569653,0.00332422,-0.00045719,-0.00170489,0.00327850,-0.00497
 751,-0.00645408,0.00047542,0.00074840,-0.00208651,0.00000141,-0.000066
 32,-0.00000022,-0.00063058,0.00045792,-0.00005669,-0.00002466,0.000044
 21,-0.00023046,-0.00001860,-0.00003729,-0.00000188,0.00004434,0.000077
 48,-0.00000805,0.00003483,0.00008911,-0.00008829,0.00008721,0.00010724
 ,0.00005824,-0.00003165,0.00000821,-0.00000284,-0.00001572,-0.00000397
 ,0.00002688,-0.00014570,0.00016107,0.00003429,-0.00005279,-0.00006007,
 0.00001808,0.00005432,0.00000497,-0.00000719,-0.00009756,0.00010221,-0
 .00012199,0.00111041,-0.00006433,-0.00068773,0.00022142,0.00012193,0.0
 0000910,0.01133297,0.21468891,0.00006657,0.00010917,0.00005649,0.00011
 983,-0.00027202,-0.00017151,-0.00003746,-0.00010315,0.00038748,-0.0000
 8371,-0.00016139,0.00019909,-0.00166920,0.00190472,-0.00556892,0.00047
 368,0.00157879,0.00020696,0.00751442,0.13329977,-0.17277521,0.00425897
 ,0.02434747,-0.02774500,-0.00277535,-0.01203613,0.01100933,0.00581299,
 -0.00400600,-0.00377869,-0.00047258,-0.00029118,0.00230440,0.00125121,
 -0.00167530,-0.00072828,0.00012373,-0.00011314,0.00000208,0.00029183,-
 0.00026309,0.00060940,0.00007136,-0.00012230,0.00010839,0.00005800,0.0
 0000563,0.00006022,-0.00010534,-0.00004303,-0.00002549,-0.00003305,-0.
 00006517,0.00008617,0.00008095,0.00019238,-0.00002860,-0.00005985,-0.0
 0001156,-0.00004541,0.00000046,-0.00000195,0.00001412,-0.00012443,0.00
 017604,-0.00000429,-0.00002850,-0.00007740,0.00001326,0.00004450,-0.00
 001265,0.00000336,-0.00023884,-0.00013710,0.00032190,-0.00131692,0.001
 04589,0.00079654,-0.00005731,-0.00011406,-0.00024006,-0.01256499,-0.14
 113979,0.19487367,0.00022561,0.00010897,0.00014210,-0.00003119,0.00006
 413,-0.00001875,-0.00000304,0.00011531,-0.00012356,-0.00001493,-0.0000
 2121,-0.00020857,0.00022306,-0.00018491,0.00020154,-0.00044120,-0.0002
 0539,-0.00058334,-0.00858847,-0.00480999,0.01844284,0.00114002,-0.0020
 4627,-0.00006353,-0.15678267,-0.14159704,0.21093619,-0.00060557,0.0021
 3436,-0.00014551,0.00037315,0.00060967,-0.00101839,-0.00000992,0.00014
 849,0.00086137,-0.00004514,-0.00000521,0.00001067,-0.00010212,0.000085
 15,-0.00008872,0.00000576,0.00005187,-0.00008195,-0.00003882,-0.000018
 41,-0.00000018,0.00002733,0.00001448,0.00001232,-0.00001784,-0.0000196
 1,-0.00003509,-0.00002908,-0.00005233,0.00000745,0.00001776,-0.0000135
 9,0.00000359,0.00000118,0.00001086,-0.00000056,0.00003509,-0.00000829,
 0.00003316,0.00003936,0.00000749,-0.00000138,-0.00003152,0.00002238,0.
 00000029,-0.00026033,-0.00022965,0.00007692,-0.00050522,-0.00011948,-0
 .00061525,0.00006634,0.00014005,0.00008219,-0.00099358,-0.00123772,-0.
 00094531,0.15600607,-0.00013874,-0.00011820,-0.00018752,-0.00007434,-0
 .00017926,-0.00002077,-0.00058115,-0.00101558,0.00131218,0.00010396,-0
 .00051156,0.00153621,-0.00009261,-0.00047230,0.00020717,0.00000455,0.0
 0036822,0.00008276,-0.01321425,-0.02211702,0.01834895,-0.00225697,0.00
 444384,0.00494470,-0.10758583,-0.08265889,0.15961279,0.00151320,-0.000
 39451,-0.00041375,0.00047371,-0.00461457,0.00236979,0.00004905,0.00242
 824,-0.00533095,0.00004365,0.00000076,-0.00002581,0.00018356,0.0001243
 9,0.00000711,-0.00007038,-0.00000427,0.00002725,0.00004609,0.00000551,
 -0.00001898,-0.00009298,-0.00001577,-0.00002773,0.00001402,0.00005182,
 0.00004256,0.00037787,0.00043001,0.00010839,-0.00011314,0.00002616,-0.
 00007097,0.00000266,-0.00006848,0.00002269,-0.00026412,0.00043584,0.00
 009720,-0.00037629,-0.00022567,0.00005994,0.00028574,-0.00004332,-0.00
 006825,0.00037751,0.00019298,-0.00024245,-0.00005720,0.00038570,0.0001
 4506,0.00002074,-0.00020196,-0.00009643,-0.00441616,-0.00349974,-0.002
 97025,0.13005844,0.11178568,0.00007275,-0.00003460,0.00007087,-0.00001
 461,0.00010641,0.00001194,0.00021301,0.00051671,-0.00043592,-0.0001686
 2,0.00032858,-0.00055044,0.00064352,0.00047570,0.00011145,-0.00007690,
 -0.00023394,-0.00011925,-0.00759900,-0.01214787,0.01305610,-0.00141208
 ,-0.00866975,0.00255113,0.19609936,0.19650119,-0.37637162,0.00055701,0
 .00257101,-0.00073811,-0.00013364,0.00579534,-0.00224721,0.00015641,-0
 .00181209,0.00212806,-0.00002120,0.00002037,-0.00000860,-0.00004386,0.
 00005957,-0.00009382,-0.00002655,0.00004443,-0.00004581,-0.00001229,-0
 .00000459,-0.00001604,0.00002988,-0.00000653,0.00002430,-0.00001527,0.
 00000713,-0.00001467,-0.00014859,-0.00017500,-0.00007793,0.00001450,-0
 .00001744,0.00003014,0.00002181,0.00002694,0.00001343,0.00021406,-0.00
 020050,-0.00005926,0.00010137,0.00007472,-0.00002647,-0.00010623,0.000
 04320,0.00004397,0.00013447,0.00013243,-0.00007508,-0.00023233,0.00005
 322,-0.00027788,0.00001954,0.00000449,0.00005117,-0.00156645,-0.003029
 36,-0.00097447,-0.19945492,-0.19112269,0.38535497,-0.00009847,0.000075
 36,-0.00019200,-0.00023517,-0.00043048,0.00002478,0.00002383,0.0001103
 7,-0.00011433,-0.00005739,0.00001234,-0.00018971,-0.00330035,-0.004618
 30,-0.00134656,-0.00035003,0.00105522,-0.00061958,-0.00926020,0.013765
 13,-0.00171454,0.00136039,-0.00020307,0.00019313,-0.22037367,0.0449928
 1,-0.16529897,-0.00053395,0.00043090,0.00038623,-0.00073262,0.00101569
 ,0.00022352,0.00028224,-0.00069171,0.00021144,-0.00003675,0.00004820,-
 0.00001927,0.00011928,-0.00012274,0.00003007,0.00002648,-0.00004533,0.
 00008639,-0.00002171,0.00002191,-0.00000119,-0.00016279,-0.00000221,-0
 .00007526,0.00003475,0.00000822,0.00003411,-0.00004033,-0.00003769,-0.
 00001894,-0.00000449,0.00000166,-0.00001096,0.00000974,0.00000710,0.00
 000458,0.00005939,-0.00001059,0.00001010,0.00002243,-0.00000159,-0.000
 00346,-0.00001187,0.00004242,0.00001318,0.00050439,-0.00033021,-0.0001
 5818,0.00003594,-0.00000358,-0.00009672,0.00002742,-0.00007847,-0.0000
 2505,0.00057415,-0.00006341,0.00034434,0.01033989,-0.00422060,0.012754
 86,0.22179947,-0.00010648,-0.00002605,-0.00010057,-0.00019481,-0.00050
 004,0.00008316,-0.00040555,-0.00081756,0.00092236,0.00018680,-0.000375
 70,0.00115197,-0.00036396,-0.00357248,-0.00084295,-0.00093140,0.001165
 02,-0.00032201,-0.01651752,0.00687066,-0.02197532,-0.00477893,0.003596
 34,0.00098161,0.05419165,-0.07539344,0.08170787,0.00121795,-0.00069968
 ,-0.00060824,0.00184774,-0.00547660,0.00069091,-0.00058199,0.00263584,
 -0.00346096,0.00004306,-0.00001735,0.00001598,0.00004830,0.00002945,0.
 00004856,-0.00004343,-0.00001650,0.00002619,0.00000759,0.00000086,0.00
 000543,-0.00016285,0.00000766,-0.00008962,0.00002730,0.00001356,0.0000
 1421,0.00028675,0.00032423,0.00011709,-0.00005147,0.00003342,-0.000035
 97,-0.00001421,-0.00005162,0.00000571,-0.00024923,0.00030702,0.0000726
 2,-0.00024110,-0.00014731,0.00004052,0.00022709,-0.00008357,-0.0000848
 8,-0.00007956,0.00004199,0.00030697,-0.00018644,-0.00006017,-0.0001937
 7,0.00016396,0.00008963,-0.00000648,0.00039063,0.00094843,0.00095679,0
 .01699744,-0.00453805,0.01069292,-0.05072731,0.07571202,-0.00013581,-0
 .00019156,-0.00005226,-0.00002022,-0.00042736,0.00001832,-0.00060187,-
 0.00113735,0.00138010,0.00022856,-0.00053710,0.00167061,0.00108694,-0.
 00189365,0.00115575,0.00004570,0.00119236,0.00026803,-0.00048176,0.002
 32916,-0.00706147,-0.00284446,0.00529743,0.00099574,-0.12875356,0.0582
 1773,-0.14993807,0.00115209,-0.00189255,-0.00071415,0.00175797,-0.0068
 8638,0.00103558,-0.00053164,0.00353888,-0.00502882,0.00009543,-0.00004
 795,0.00002295,0.00000192,0.00011623,0.00007509,-0.00007228,-0.0000011
 2,0.00000353,0.00005716,-0.00000011,0.00001912,-0.00010599,0.00003975,
 -0.00008012,-0.00000272,0.00003382,-0.00000789,0.00041316,0.00047147,0
 .00015673,-0.00008946,0.00003421,-0.00005784,-0.00001624,-0.00007196,0
 .00001474,-0.00036558,0.00041569,0.00013092,-0.00040552,-0.00021418,0.
 00006460,0.00029543,-0.00006712,-0.00006374,0.00011429,0.00018853,0.00
 011999,0.00018593,-0.00002520,0.00008393,0.00006432,-0.00009297,-0.000
 10170,0.00078585,0.00005961,0.00103307,-0.02742562,0.01167179,-0.02131
 496,0.15556796,-0.07012012,0.17617225\\-0.05226283,-0.02189748,-0.0006
 6571,0.02303669,0.04036352,-0.01876460,0.02439299,-0.01497097,0.012320
 36,-0.03356840,-0.05031886,-0.04399038,0.02747597,0.02643072,0.0295353
 8,0.01401213,-0.02887194,-0.03671040,-0.03695394,-0.02210557,-0.005861
 15,-0.02453750,-0.06419440,-0.01027324,0.01470880,0.04594963,-0.029786
 68,0.00774827,0.00935716,0.00429653,0.01568908,0.03585826,-0.00335059,
 -0.00910483,-0.00303281,0.06813975,0.00548617,0.00157420,-0.01692363,0
 .01864771,-0.00116269,-0.00874945,0.00399585,0.00377365,0.01307514,0.0
 0015659,-0.00446430,-0.01278615,-0.01225134,-0.03395720,0.01877776,-0.
 00229671,0.00000377,0.03245145,-0.00816527,0.00803279,-0.03988436,-0.0
 0375834,0.00264306,0.00239139,-0.00663986,0.01677787,-0.00354081,0.021
 68248,-0.00061496,-0.02625855,-0.00504637,0.06320197,0.03363564,0.0064
 9038,0.00425416,0.01433324,0.00760557,-0.00491980,-0.00464096,-0.00771
 935,0.00084428,-0.02664632,-0.01329460,0.02501319,0.02604060,0.0147203
 9,-0.01173582,-0.01488183,-0.01443098,-0.02643705,0.04036574,0.0241812
 7,0.00460563,0.00835184\\\@


 Luck is a matter of preparation meeting opportunity.
                                    -- Oprah Winfrey
 Job cpu time:       0 days  1 hours 26 minutes  3.0 seconds.
 Elapsed time:       0 days  0 hours 10 minutes 45.6 seconds.
 File lengths (MBytes):  RWF=    231 Int=      0 D2E=      0 Chk=      8 Scr=      1
 Normal termination of Gaussian 16 at Wed Feb 24 15:45:48 2021.
