 Entering Gaussian System, Link 0=g16
 Input=305_gau.com
 Output=305_gau.log
 Initial command:
 /share/apps/g16/l1.exe "/scratch/Gau-27142.inp" -scrdir="/scratch/"
 Entering Link 1 = /share/apps/g16/l1.exe PID=     27147.
  
 Copyright (c) 1988,1990,1992,1993,1995,1998,2003,2009,2016,
            Gaussian, Inc.  All Rights Reserved.
  
 This is part of the Gaussian(R) 16 program.  It is based on
 the Gaussian(R) 09 system (copyright 2009, Gaussian, Inc.),
 the Gaussian(R) 03 system (copyright 2003, Gaussian, Inc.),
 the Gaussian(R) 98 system (copyright 1998, Gaussian, Inc.),
 the Gaussian(R) 94 system (copyright 1995, Gaussian, Inc.),
 the Gaussian 92(TM) system (copyright 1992, Gaussian, Inc.),
 the Gaussian 90(TM) system (copyright 1990, Gaussian, Inc.),
 the Gaussian 88(TM) system (copyright 1988, Gaussian, Inc.),
 the Gaussian 86(TM) system (copyright 1986, Carnegie Mellon
 University), and the Gaussian 82(TM) system (copyright 1983,
 Carnegie Mellon University). Gaussian is a federally registered
 trademark of Gaussian, Inc.
  
 This software contains proprietary and confidential information,
 including trade secrets, belonging to Gaussian, Inc.
  
 This software is provided under written license and may be
 used, copied, transmitted, or stored only in accord with that
 written license.
  
 The following legend is applicable only to US Government
 contracts under FAR:
  
                    RESTRICTED RIGHTS LEGEND
  
 Use, reproduction and disclosure by the US Government is
 subject to restrictions as set forth in subparagraphs (a)
 and (c) of the Commercial Computer Software - Restricted
 Rights clause in FAR 52.227-19.
  
 Gaussian, Inc.
 340 Quinnipiac St., Bldg. 40, Wallingford CT 06492
  
  
 ---------------------------------------------------------------
 Warning -- This program may not be used in any manner that
 competes with the business of Gaussian, Inc. or will provide
 assistance to any competitor of Gaussian, Inc.  The licensee
 of this program is prohibited from giving any competitor of
 Gaussian, Inc. access to this program.  By using this program,
 the user acknowledges that Gaussian, Inc. is engaged in the
 business of creating and licensing software in the field of
 computational chemistry and represents and warrants to the
 licensee that it is not a competitor of Gaussian, Inc. and that
 it will not use this program in any manner prohibited above.
 ---------------------------------------------------------------
  

 Cite this work as:
 Gaussian 16, Revision A.03,
 M. J. Frisch, G. W. Trucks, H. B. Schlegel, G. E. Scuseria, 
 M. A. Robb, J. R. Cheeseman, G. Scalmani, V. Barone, 
 G. A. Petersson, H. Nakatsuji, X. Li, M. Caricato, A. V. Marenich, 
 J. Bloino, B. G. Janesko, R. Gomperts, B. Mennucci, H. P. Hratchian, 
 J. V. Ortiz, A. F. Izmaylov, J. L. Sonnenberg, D. Williams-Young, 
 F. Ding, F. Lipparini, F. Egidi, J. Goings, B. Peng, A. Petrone, 
 T. Henderson, D. Ranasinghe, V. G. Zakrzewski, J. Gao, N. Rega, 
 G. Zheng, W. Liang, M. Hada, M. Ehara, K. Toyota, R. Fukuda, 
 J. Hasegawa, M. Ishida, T. Nakajima, Y. Honda, O. Kitao, H. Nakai, 
 T. Vreven, K. Throssell, J. A. Montgomery, Jr., J. E. Peralta, 
 F. Ogliaro, M. J. Bearpark, J. J. Heyd, E. N. Brothers, K. N. Kudin, 
 V. N. Staroverov, T. A. Keith, R. Kobayashi, J. Normand, 
 K. Raghavachari, A. P. Rendell, J. C. Burant, S. S. Iyengar, 
 J. Tomasi, M. Cossi, J. M. Millam, M. Klene, C. Adamo, R. Cammi, 
 J. W. Ochterski, R. L. Martin, K. Morokuma, O. Farkas, 
 J. B. Foresman, and D. J. Fox, Gaussian, Inc., Wallingford CT, 2016.
 
 ******************************************
 Gaussian 16:  ES64L-G16RevA.03 25-Dec-2016
                22-Feb-2021 
 ******************************************
 %nprocshared=8
 Will use up to    8 processors via shared memory.
 %mem=4000MB
 %chk=305_73scan.chk
 -----------------------------------------------------
 # opt freq em=gd3bj int=ultrafine pbe1pbe scf=xqc SVP
 -----------------------------------------------------
 1/18=20,19=15,26=4,38=1/1,3;
 2/9=110,12=2,17=6,18=5,40=1/2;
 3/5=18,7=101,11=2,25=1,30=1,71=1,74=-13,75=-5,124=41/1,2,3;
 4//1;
 5/5=2,8=3,13=1,38=5/2,8;
 6/7=2,8=2,9=2,10=2,28=1/1;
 7//1,2,3,16;
 1/18=20,19=15,26=4/3(2);
 2/9=110/2;
 99//99;
 2/9=110/2;
 3/5=18,7=101,11=2,25=1,30=1,71=1,74=-13,75=-5,124=41/1,2,3;
 4/5=5,16=3,69=1/1;
 5/5=2,8=3,13=1,38=5/2,8;
 7//1,2,3,16;
 1/18=20,19=15,26=4/3(-5);
 2/9=110/2;
 6/7=2,8=2,9=2,10=2,19=2,28=1/1;
 99/9=1/99;
 -------------------
 Title Card Required
 -------------------
 Symbolic Z-matrix:
 Charge =  1 Multiplicity = 2
 C                     2.6677   -1.073     0.8843 
 C                     0.7607    0.0616   -0.2799 
 C                     4.9359   -1.2997   -4.1991 
 C                     7.7087   -0.9709   -2.922 
 C                     5.9261   -3.3116   -2.1588 
 C                     2.9566    1.2702   -0.0936 
 C                     2.2839   -0.1109   -0.2401 
 C                     4.4923    1.2722   -0.0893 
 C                     5.0687    0.7595   -1.4211 
 N                     4.9536    2.6674    0.1395 
 O                     5.3439    1.4903   -2.3693 
 O                     5.2549   -0.5862   -1.3731 
 Si                    5.9269   -1.4804   -2.6142 
 H                     2.1494   -2.031     0.7651 
 H                     2.4031   -0.6642    1.8648 
 H                     3.7402   -1.2888    0.8808 
 H                     0.2461   -0.8982   -0.1644 
 H                     0.4506    0.4906   -1.2389 
 H                     0.4109    0.7291    0.5152 
 H                     5.3945   -1.876    -5.0081 
 H                     4.881    -0.2534   -4.5122 
 H                     3.916    -1.6675   -4.0521 
 H                     8.142    -1.5551   -3.7392 
 H                     8.3137   -1.137    -2.0255 
 H                     7.7723    0.0894   -3.1836 
 H                     6.4146   -3.8993   -2.9418 
 H                     4.9012   -3.6756   -2.0426 
 H                     6.4612   -3.4747   -1.2189 
 H                     2.6052    1.7294    0.8417 
 H                     2.5962    1.9148   -0.9074 
 H                     2.584    -0.5628   -1.1926 
 H                     4.8947    0.6697    0.7307 
 H                     4.6798    3.2213   -0.6781 
 H                     5.9743    2.6773    0.1136 
 

 GradGradGradGradGradGradGradGradGradGradGradGradGradGradGradGradGradGrad
 Berny optimization.
 Initialization pass.
                           ----------------------------
                           !    Initial Parameters    !
                           ! (Angstroms and Degrees)  !
 --------------------------                            --------------------------
 ! Name  Definition              Value          Derivative Info.                !
 --------------------------------------------------------------------------------
 ! R1    R(1,7)                  1.5288         estimate D2E/DX2                !
 ! R2    R(1,14)                 1.0957         estimate D2E/DX2                !
 ! R3    R(1,15)                 1.0948         estimate D2E/DX2                !
 ! R4    R(1,16)                 1.094          estimate D2E/DX2                !
 ! R5    R(2,7)                  1.5335         estimate D2E/DX2                !
 ! R6    R(2,17)                 1.0952         estimate D2E/DX2                !
 ! R7    R(2,18)                 1.0954         estimate D2E/DX2                !
 ! R8    R(2,19)                 1.0955         estimate D2E/DX2                !
 ! R9    R(3,13)                 1.8779         estimate D2E/DX2                !
 ! R10   R(3,20)                 1.094          estimate D2E/DX2                !
 ! R11   R(3,21)                 1.0935         estimate D2E/DX2                !
 ! R12   R(3,22)                 1.0941         estimate D2E/DX2                !
 ! R13   R(4,13)                 1.8786         estimate D2E/DX2                !
 ! R14   R(4,23)                 1.094          estimate D2E/DX2                !
 ! R15   R(4,24)                 1.0942         estimate D2E/DX2                !
 ! R16   R(4,25)                 1.0939         estimate D2E/DX2                !
 ! R17   R(5,13)                 1.887          estimate D2E/DX2                !
 ! R18   R(5,26)                 1.0941         estimate D2E/DX2                !
 ! R19   R(5,27)                 1.0938         estimate D2E/DX2                !
 ! R20   R(5,28)                 1.0938         estimate D2E/DX2                !
 ! R21   R(6,7)                  1.5432         estimate D2E/DX2                !
 ! R22   R(6,8)                  1.5357         estimate D2E/DX2                !
 ! R23   R(6,29)                 1.0996         estimate D2E/DX2                !
 ! R24   R(6,30)                 1.0989         estimate D2E/DX2                !
 ! R25   R(7,31)                 1.0961         estimate D2E/DX2                !
 ! R26   R(8,9)                  1.5391         estimate D2E/DX2                !
 ! R27   R(8,10)                 1.4872         estimate D2E/DX2                !
 ! R28   R(8,32)                 1.0942         estimate D2E/DX2                !
 ! R29   R(9,11)                 1.2284         estimate D2E/DX2                !
 ! R30   R(9,12)                 1.3594         estimate D2E/DX2                !
 ! R31   R(10,33)                1.0248         estimate D2E/DX2                !
 ! R32   R(10,34)                1.0211         estimate D2E/DX2                !
 ! R33   R(12,13)                1.6708         estimate D2E/DX2                !
 ! A1    A(7,1,14)             110.5765         estimate D2E/DX2                !
 ! A2    A(7,1,15)             111.2872         estimate D2E/DX2                !
 ! A3    A(7,1,16)             111.5861         estimate D2E/DX2                !
 ! A4    A(14,1,15)            108.0341         estimate D2E/DX2                !
 ! A5    A(14,1,16)            106.9126         estimate D2E/DX2                !
 ! A6    A(15,1,16)            108.2684         estimate D2E/DX2                !
 ! A7    A(7,2,17)             111.4334         estimate D2E/DX2                !
 ! A8    A(7,2,18)             110.3639         estimate D2E/DX2                !
 ! A9    A(7,2,19)             111.5233         estimate D2E/DX2                !
 ! A10   A(17,2,18)            107.6105         estimate D2E/DX2                !
 ! A11   A(17,2,19)            107.904          estimate D2E/DX2                !
 ! A12   A(18,2,19)            107.8421         estimate D2E/DX2                !
 ! A13   A(13,3,20)            110.621          estimate D2E/DX2                !
 ! A14   A(13,3,21)            111.1128         estimate D2E/DX2                !
 ! A15   A(13,3,22)            110.2536         estimate D2E/DX2                !
 ! A16   A(20,3,21)            108.2605         estimate D2E/DX2                !
 ! A17   A(20,3,22)            108.2414         estimate D2E/DX2                !
 ! A18   A(21,3,22)            108.2592         estimate D2E/DX2                !
 ! A19   A(13,4,23)            110.6843         estimate D2E/DX2                !
 ! A20   A(13,4,24)            110.4265         estimate D2E/DX2                !
 ! A21   A(13,4,25)            110.928          estimate D2E/DX2                !
 ! A22   A(23,4,24)            108.1771         estimate D2E/DX2                !
 ! A23   A(23,4,25)            108.4164         estimate D2E/DX2                !
 ! A24   A(24,4,25)            108.1139         estimate D2E/DX2                !
 ! A25   A(13,5,26)            110.3872         estimate D2E/DX2                !
 ! A26   A(13,5,27)            110.425          estimate D2E/DX2                !
 ! A27   A(13,5,28)            110.6028         estimate D2E/DX2                !
 ! A28   A(26,5,27)            108.3984         estimate D2E/DX2                !
 ! A29   A(26,5,28)            108.4477         estimate D2E/DX2                !
 ! A30   A(27,5,28)            108.5112         estimate D2E/DX2                !
 ! A31   A(7,6,8)              115.9346         estimate D2E/DX2                !
 ! A32   A(7,6,29)             108.372          estimate D2E/DX2                !
 ! A33   A(7,6,30)             108.1614         estimate D2E/DX2                !
 ! A34   A(8,6,29)             108.46           estimate D2E/DX2                !
 ! A35   A(8,6,30)             109.2239         estimate D2E/DX2                !
 ! A36   A(29,6,30)            106.2676         estimate D2E/DX2                !
 ! A37   A(1,7,2)              109.8312         estimate D2E/DX2                !
 ! A38   A(1,7,6)              112.5793         estimate D2E/DX2                !
 ! A39   A(1,7,31)             108.1149         estimate D2E/DX2                !
 ! A40   A(2,7,6)              109.5597         estimate D2E/DX2                !
 ! A41   A(2,7,31)             107.2037         estimate D2E/DX2                !
 ! A42   A(6,7,31)             109.3969         estimate D2E/DX2                !
 ! A43   A(6,8,9)              111.8174         estimate D2E/DX2                !
 ! A44   A(6,8,10)             108.1698         estimate D2E/DX2                !
 ! A45   A(6,8,32)             111.6618         estimate D2E/DX2                !
 ! A46   A(9,8,10)             109.237          estimate D2E/DX2                !
 ! A47   A(9,8,32)             109.1058         estimate D2E/DX2                !
 ! A48   A(10,8,32)            106.6903         estimate D2E/DX2                !
 ! A49   A(8,9,11)             123.6194         estimate D2E/DX2                !
 ! A50   A(8,9,12)             110.5187         estimate D2E/DX2                !
 ! A51   A(11,9,12)            125.84           estimate D2E/DX2                !
 ! A52   A(8,10,33)            107.5445         estimate D2E/DX2                !
 ! A53   A(8,10,34)            108.3766         estimate D2E/DX2                !
 ! A54   A(33,10,34)           103.9807         estimate D2E/DX2                !
 ! A55   A(9,12,13)            123.9646         estimate D2E/DX2                !
 ! A56   A(3,13,4)             109.6419         estimate D2E/DX2                !
 ! A57   A(3,13,5)             107.2676         estimate D2E/DX2                !
 ! A58   A(3,13,12)            111.2949         estimate D2E/DX2                !
 ! A59   A(4,13,5)             107.6463         estimate D2E/DX2                !
 ! A60   A(4,13,12)            110.9798         estimate D2E/DX2                !
 ! A61   A(5,13,12)            109.873          estimate D2E/DX2                !
 ! D1    D(14,1,7,2)            55.9144         estimate D2E/DX2                !
 ! D2    D(14,1,7,6)           178.2858         estimate D2E/DX2                !
 ! D3    D(14,1,7,31)          -60.7518         estimate D2E/DX2                !
 ! D4    D(15,1,7,2)           -64.1625         estimate D2E/DX2                !
 ! D5    D(15,1,7,6)            58.2089         estimate D2E/DX2                !
 ! D6    D(15,1,7,31)          179.1713         estimate D2E/DX2                !
 ! D7    D(16,1,7,2)           174.7764         estimate D2E/DX2                !
 ! D8    D(16,1,7,6)           -62.8521         estimate D2E/DX2                !
 ! D9    D(16,1,7,31)           58.1102         estimate D2E/DX2                !
 ! D10   D(17,2,7,1)           -43.5054         estimate D2E/DX2                !
 ! D11   D(17,2,7,6)          -167.6509         estimate D2E/DX2                !
 ! D12   D(17,2,7,31)           73.7313         estimate D2E/DX2                !
 ! D13   D(18,2,7,1)          -163.0041         estimate D2E/DX2                !
 ! D14   D(18,2,7,6)            72.8504         estimate D2E/DX2                !
 ! D15   D(18,2,7,31)          -45.7674         estimate D2E/DX2                !
 ! D16   D(19,2,7,1)            77.1477         estimate D2E/DX2                !
 ! D17   D(19,2,7,6)           -46.9978         estimate D2E/DX2                !
 ! D18   D(19,2,7,31)         -165.6155         estimate D2E/DX2                !
 ! D19   D(20,3,13,4)           55.8945         estimate D2E/DX2                !
 ! D20   D(20,3,13,5)          -60.7212         estimate D2E/DX2                !
 ! D21   D(20,3,13,12)         179.065          estimate D2E/DX2                !
 ! D22   D(21,3,13,4)          -64.382          estimate D2E/DX2                !
 ! D23   D(21,3,13,5)          179.0023         estimate D2E/DX2                !
 ! D24   D(21,3,13,12)          58.7885         estimate D2E/DX2                !
 ! D25   D(22,3,13,4)          175.5866         estimate D2E/DX2                !
 ! D26   D(22,3,13,5)           58.971          estimate D2E/DX2                !
 ! D27   D(22,3,13,12)         -61.2428         estimate D2E/DX2                !
 ! D28   D(23,4,13,3)          -56.309          estimate D2E/DX2                !
 ! D29   D(23,4,13,5)           60.0677         estimate D2E/DX2                !
 ! D30   D(23,4,13,12)        -179.6654         estimate D2E/DX2                !
 ! D31   D(24,4,13,3)         -176.0733         estimate D2E/DX2                !
 ! D32   D(24,4,13,5)          -59.6966         estimate D2E/DX2                !
 ! D33   D(24,4,13,12)          60.5704         estimate D2E/DX2                !
 ! D34   D(25,4,13,3)           64.0838         estimate D2E/DX2                !
 ! D35   D(25,4,13,5)         -179.5395         estimate D2E/DX2                !
 ! D36   D(25,4,13,12)         -59.2726         estimate D2E/DX2                !
 ! D37   D(26,5,13,3)           62.0106         estimate D2E/DX2                !
 ! D38   D(26,5,13,4)          -55.9113         estimate D2E/DX2                !
 ! D39   D(26,5,13,12)        -176.8749         estimate D2E/DX2                !
 ! D40   D(27,5,13,3)          -57.8374         estimate D2E/DX2                !
 ! D41   D(27,5,13,4)         -175.7593         estimate D2E/DX2                !
 ! D42   D(27,5,13,12)          63.2772         estimate D2E/DX2                !
 ! D43   D(28,5,13,3)         -177.9653         estimate D2E/DX2                !
 ! D44   D(28,5,13,4)           64.1127         estimate D2E/DX2                !
 ! D45   D(28,5,13,12)         -56.8508         estimate D2E/DX2                !
 ! D46   D(8,6,7,1)             59.5985         estimate D2E/DX2                !
 ! D47   D(8,6,7,2)           -177.8772         estimate D2E/DX2                !
 ! D48   D(8,6,7,31)           -60.6275         estimate D2E/DX2                !
 ! D49   D(29,6,7,1)           -62.5777         estimate D2E/DX2                !
 ! D50   D(29,6,7,2)            59.9466         estimate D2E/DX2                !
 ! D51   D(29,6,7,31)          177.1963         estimate D2E/DX2                !
 ! D52   D(30,6,7,1)          -177.3864         estimate D2E/DX2                !
 ! D53   D(30,6,7,2)           -54.8621         estimate D2E/DX2                !
 ! D54   D(30,6,7,31)           62.3876         estimate D2E/DX2                !
 ! D55   D(7,6,8,9)             62.9587         estimate D2E/DX2                !
 ! D56   D(7,6,8,10)          -176.7161         estimate D2E/DX2                !
 ! D57   D(7,6,8,32)           -59.6131         estimate D2E/DX2                !
 ! D58   D(29,6,8,9)          -174.9117         estimate D2E/DX2                !
 ! D59   D(29,6,8,10)          -54.5866         estimate D2E/DX2                !
 ! D60   D(29,6,8,32)           62.5165         estimate D2E/DX2                !
 ! D61   D(30,6,8,9)           -59.4972         estimate D2E/DX2                !
 ! D62   D(30,6,8,10)           60.8279         estimate D2E/DX2                !
 ! D63   D(30,6,8,32)          177.931          estimate D2E/DX2                !
 ! D64   D(6,8,9,11)            91.2509         estimate D2E/DX2                !
 ! D65   D(6,8,9,12)           -90.3635         estimate D2E/DX2                !
 ! D66   D(10,8,9,11)          -28.4488         estimate D2E/DX2                !
 ! D67   D(10,8,9,12)          149.9368         estimate D2E/DX2                !
 ! D68   D(32,8,9,11)         -144.731          estimate D2E/DX2                !
 ! D69   D(32,8,9,12)           33.6546         estimate D2E/DX2                !
 ! D70   D(6,8,10,33)          -66.3994         estimate D2E/DX2                !
 ! D71   D(6,8,10,34)         -178.2399         estimate D2E/DX2                !
 ! D72   D(9,8,10,33)           55.5259         estimate D2E/DX2                !
 ! D73   D(9,8,10,34)          -56.3146         estimate D2E/DX2                !
 ! D74   D(32,8,10,33)         173.3362         estimate D2E/DX2                !
 ! D75   D(32,8,10,34)          61.4957         estimate D2E/DX2                !
 ! D76   D(8,9,12,13)         -177.2511         estimate D2E/DX2                !
 ! D77   D(11,9,12,13)           1.0905         estimate D2E/DX2                !
 ! D78   D(9,12,13,3)          -58.8064         estimate D2E/DX2                !
 ! D79   D(9,12,13,4)           63.5953         estimate D2E/DX2                !
 ! D80   D(9,12,13,5)         -177.469          estimate D2E/DX2                !
 --------------------------------------------------------------------------------
 Trust Radius=3.00D-01 FncErr=1.00D-07 GrdErr=1.00D-06 EigMax=2.50D+02 EigMin=1.00D-04
 Number of steps in this run=    184 maximum allowed number of steps=    204.
 GradGradGradGradGradGradGradGradGradGradGradGradGradGradGradGradGradGrad

                          Input orientation:                          
 ---------------------------------------------------------------------
 Center     Atomic      Atomic             Coordinates (Angstroms)
 Number     Number       Type             X           Y           Z
 ---------------------------------------------------------------------
      1          6           0        2.667700   -1.073000    0.884300
      2          6           0        0.760700    0.061600   -0.279900
      3          6           0        4.935900   -1.299700   -4.199100
      4          6           0        7.708700   -0.970900   -2.922000
      5          6           0        5.926100   -3.311600   -2.158800
      6          6           0        2.956600    1.270200   -0.093600
      7          6           0        2.283900   -0.110900   -0.240100
      8          6           0        4.492300    1.272200   -0.089300
      9          6           0        5.068700    0.759500   -1.421100
     10          7           0        4.953600    2.667400    0.139500
     11          8           0        5.343900    1.490300   -2.369300
     12          8           0        5.254900   -0.586200   -1.373100
     13         14           0        5.926900   -1.480400   -2.614200
     14          1           0        2.149400   -2.031000    0.765100
     15          1           0        2.403100   -0.664200    1.864800
     16          1           0        3.740200   -1.288800    0.880800
     17          1           0        0.246100   -0.898200   -0.164400
     18          1           0        0.450600    0.490600   -1.238900
     19          1           0        0.410900    0.729100    0.515200
     20          1           0        5.394500   -1.876000   -5.008100
     21          1           0        4.881000   -0.253400   -4.512200
     22          1           0        3.916000   -1.667500   -4.052100
     23          1           0        8.142000   -1.555100   -3.739200
     24          1           0        8.313700   -1.137000   -2.025500
     25          1           0        7.772300    0.089400   -3.183600
     26          1           0        6.414600   -3.899300   -2.941800
     27          1           0        4.901200   -3.675600   -2.042600
     28          1           0        6.461200   -3.474700   -1.218900
     29          1           0        2.605200    1.729400    0.841700
     30          1           0        2.596200    1.914800   -0.907400
     31          1           0        2.584000   -0.562800   -1.192600
     32          1           0        4.894700    0.669700    0.730700
     33          1           0        4.679800    3.221300   -0.678100
     34          1           0        5.974300    2.677300    0.113600
 ---------------------------------------------------------------------
                    Distance matrix (angstroms):
                    1          2          3          4          5
     1  C    0.000000
     2  C    2.505859   0.000000
     3  C    5.571093   5.886048   0.000000
     4  C    6.317438   7.504762   3.070426   0.000000
     5  C    4.988883   6.449039   3.031676   3.039575   0.000000
     6  C    2.555453   2.513444   5.232317   5.966978   5.837454
     7  C    1.528795   1.533453   4.911215   6.112335   5.214548
     8  C    3.126823   3.927686   4.868460   4.837449   5.229707
     9  C    3.799701   4.510905   3.460524   3.495223   4.225304
    10  N    4.446421   4.954442   5.878915   5.495506   6.478918
    11  O    4.931376   5.235695   3.361359   3.457638   4.841643
    12  O    3.467915   4.670392   2.932084   2.927152   2.914728
    13  Si   4.798735   5.875061   1.877935   1.878601   1.886977
    14  H    1.095722   2.720200   5.739570   6.754579   4.944956
    15  H    1.094765   2.797142   6.602259   7.152406   5.967379
    16  H    1.094001   3.471055   5.218736   5.505574   4.255473
    17  H    2.644707   1.095157   6.199535   7.956132   6.485717
    18  H    3.445048   1.095392   5.664439   7.592682   6.729342
    19  H    2.911519   1.095491   6.842242   8.243921   7.341319
    20  H    6.542219   6.897990   1.094037   3.244463   3.234510
    21  H    5.890047   5.915104   1.093522   3.322564   3.997914
    22  H    5.126376   5.212984   1.094112   4.018327   3.213744
    23  H    7.181722   8.310479   3.248971   1.094008   3.239316
    24  H    6.352035   7.844206   4.020018   1.094224   3.232226
    25  H    6.629926   7.589123   3.317530   1.093945   4.003183
    26  H    6.055268   7.398718   3.244268   3.201658   1.094126
    27  H    4.508746   5.849574   3.208831   3.996349   1.093809
    28  H    4.958050   6.773687   3.992337   3.275030   1.093776
    29  H    2.803421   2.727952   6.325921   6.892225   6.741147
    30  H    3.484573   2.682754   5.161637   6.206733   6.322143
    31  H    2.140286   2.132444   3.887608   5.424013   4.433856
    32  H    2.831983   4.298960   5.308782   4.894117   5.026305
    33  H    4.993060   5.049912   5.736067   5.637718   6.813554
    34  H    5.058886   5.846226   5.957700   5.052957   6.405704
                    6          7          8          9         10
     6  C    0.000000
     7  C    1.543187   0.000000
     8  C    1.535707   2.610122   0.000000
     9  C    2.546377   3.147613   1.539087   0.000000
    10  N    2.448369   3.871737   1.487189   2.467550   0.000000
    11  O    3.305519   4.057208   2.443602   1.228368   2.798567
    12  O    3.219553   3.215033   2.383978   1.359369   3.600646
    13  Si   4.768848   4.558874   4.001250   2.679020   5.072911
    14  H    3.505262   2.171474   4.138878   4.592241   5.507257
    15  H    2.807774   2.179668   3.454404   4.464245   4.536658
    16  H    2.848151   2.182814   2.839977   3.355471   4.203972
    17  H    3.471856   2.185910   4.769328   5.252117   5.913241
    18  H    2.863481   2.172646   4.274087   4.629509   5.188011
    19  H    2.672829   2.187283   4.161515   5.044332   4.953209
    20  H    6.324100   5.960305   5.909291   4.463023   6.880019
    21  H    5.054572   5.001607   4.694740   3.258235   5.493146
    22  H    5.021977   4.429232   4.967670   3.760480   6.118618
    23  H    6.939819   6.974722   5.885211   4.491785   6.560466
    24  H    6.182667   6.371736   4.914897   3.806841   5.518239
    25  H    5.842376   6.231119   4.661771   3.296194   5.063018
    26  H    6.840595   6.222045   6.210991   5.082164   7.399357
    27  H    5.660478   4.775600   5.335101   4.481566   6.708052
    28  H    6.005214   5.451884   5.261713   4.461882   6.468655
    29  H    1.099606   2.158756   2.153355   3.482787   2.624483
    30  H    1.098939   2.155523   2.162734   2.777024   2.686958
    31  H    2.169452   1.096143   2.868119   2.823902   4.221811
    32  H    2.190046   2.892761   1.094227   2.160690   2.084177
    33  H    2.667930   4.127437   2.044708   2.600721   1.024813
    34  H    3.336072   4.638773   2.052267   2.617895   1.021077
                   11         12         13         14         15
    11  O    0.000000
    12  O    2.304818   0.000000
    13  Si   3.037256   1.670780   0.000000
    14  H    5.694633   4.037756   5.098268   0.000000
    15  H    5.587287   4.315419   5.757151   1.772525   0.000000
    16  H    4.567100   2.805001   4.127153   1.759231   1.773758
    17  H    6.045997   5.162013   6.213853   2.402032   2.970700
    18  H    5.120702   4.925323   5.980481   3.641484   3.844317
    19  H    5.764916   5.362838   6.715749   3.271542   2.780569
    20  H    4.277593   3.859572   2.484091   6.624541   7.593003
    21  H    2.801212   3.178759   2.490349   6.202531   6.853822
    22  H    3.852586   3.184165   2.479170   5.143775   6.189118
    23  H    4.356656   3.856494   2.485533   7.511754   8.070532
    24  H    3.980027   3.175730   2.482198   6.825341   7.091768
    25  H    2.919372   3.173586   2.488773   7.190642   7.408277
    26  H    5.524667   3.844783   2.489227   5.951771   7.047085
    27  H    5.195117   3.180837   2.489516   4.261489   5.529630
    28  H    5.217567   3.134066   2.491901   4.961063   5.820334
    29  H    4.227076   4.157914   5.768861   3.788698   2.610919
    30  H    3.141211   3.679750   5.053129   4.308854   3.791256
    31  H    3.635504   2.677094   3.746721   2.485373   3.064425
    32  H    3.238080   2.476490   4.108129   3.851186   3.045249
    33  H    2.509491   3.912904   5.235430   6.006031   5.171732
    34  H    2.823325   3.657628   4.972887   6.101016   5.194785
                   16         17         18         19         20
    16  H    0.000000
    17  H    3.667935   0.000000
    18  H    4.298937   1.767805   0.000000
    19  H    3.910220   1.771192   1.770685   0.000000
    20  H    6.144970   7.136074   6.652053   7.882237   0.000000
    21  H    5.608737   6.387600   5.558460   6.798665   1.772690
    22  H    4.950538   5.401315   4.957871   6.236156   1.772955
    23  H    6.386796   8.692293   8.342303   9.115229   3.043327
    24  H    5.420934   8.282928   8.068219   8.508333   4.238367
    25  H    5.888685   8.169125   7.586179   8.263204   3.584066
    26  H    5.345970   7.400739   7.598710   8.331707   3.066585
    27  H    3.948544   5.736858   6.149065   6.790178   3.503726
    28  H    4.073173   6.810124   7.200786   7.568697   4.248732
    29  H    3.224792   3.671767   3.241269   2.433548   7.416149
    30  H    3.843104   3.740052   2.596505   2.864474   6.246310
    31  H    2.482511   2.575940   2.379746   3.050893   4.917463
    32  H    2.278404   4.986882   4.864301   4.489369   6.297953
    33  H    4.863540   6.073867   5.065309   5.085129   6.726230
    34  H    4.616248   6.758236   6.092797   5.908315   6.877537
                   21         22         23         24         25
    21  H    0.000000
    22  H    1.772737   0.000000
    23  H    3.595285   4.239058   0.000000
    24  H    4.329879   4.871171   1.772303   0.000000
    25  H    3.200360   4.325742   1.774753   1.771544   0.000000
    26  H    4.255664   3.529405   3.019111   3.475124   4.220373
    27  H    4.220283   3.006855   4.228210   4.253227   4.870351
    28  H    4.870280   4.215571   3.586344   3.089855   4.275727
    29  H    6.146138   6.099705   7.901186   7.001718   6.752152
    30  H    4.787064   4.946098   7.128478   6.576735   5.941816
    31  H    4.048664   3.342353   6.193641   5.818324   5.595347
    32  H    5.323561   5.412535   5.956064   4.748722   4.892757
    33  H    5.178257   5.988959   6.646139   5.832280   5.064571
    34  H    5.584114   6.361363   6.120147   4.959579   4.560873
                   26         27         28         29         30
    26  H    0.000000
    27  H    1.774537   0.000000
    28  H    1.775061   1.775512   0.000000
    29  H    7.778732   6.542540   6.796872   0.000000
    30  H    7.247256   6.152583   6.639425   1.758922   0.000000
    31  H    5.372656   3.972586   4.848972   3.064801   2.493991
    32  H    6.055833   5.154888   4.840549   2.525291   3.084923
    33  H    7.670516   7.034068   6.949983   2.973134   2.470002
    34  H    7.265053   6.794121   6.313456   3.574840   3.610458
                   31         32         33         34
    31  H    0.000000
    32  H    3.249227   0.000000
    33  H    4.356203   2.922595   0.000000
    34  H    4.868115   2.361526   1.611972   0.000000
 Stoichiometry    C9H21NO2Si(1+,2)
 Framework group  C1[X(C9H21NO2Si)]
 Deg. of freedom    96
 Full point group                 C1      NOp   1
 Largest Abelian subgroup         C1      NOp   1
 Largest concise Abelian subgroup C1      NOp   1
                         Standard orientation:                         
 ---------------------------------------------------------------------
 Center     Atomic      Atomic             Coordinates (Angstroms)
 Number     Number       Type             X           Y           Z
 ---------------------------------------------------------------------
      1          6           0        2.299219   -1.649458   -1.224718
      2          6           0        3.464739   -1.693831    0.993147
      3          6           0       -2.292995   -0.782762    1.808019
      4          6           0       -3.401360    0.963969   -0.460895
      5          6           0       -2.674278   -1.943737   -0.966476
      6          6           0        2.512590    0.481550    0.169418
      7          6           0        2.333359   -1.051143    0.181721
      8          6           0        1.424699    1.279107   -0.564607
      9          6           0        0.045858    1.109357    0.097792
     10          7           0        1.806726    2.716174   -0.539614
     11          8           0       -0.384329    1.855366    0.973747
     12          8           0       -0.618498    0.056376   -0.447868
     13         14           0       -2.172327   -0.387964   -0.023979
     14          1           0        2.201635   -2.739788   -1.177114
     15          1           0        3.213863   -1.414908   -1.778724
     16          1           0        1.445494   -1.278307   -1.799382
     17          1           0        3.497041   -2.778482    0.845306
     18          1           0        3.318857   -1.509383    2.062998
     19          1           0        4.442173   -1.286432    0.712524
     20          1           0       -3.317722   -1.056123    2.076578
     21          1           0       -1.996895    0.076287    2.416417
     22          1           0       -1.637724   -1.622383    2.058494
     23          1           0       -4.416051    0.670558   -0.175995
     24          1           0       -3.391234    1.155692   -1.538145
     25          1           0       -3.154398    1.897554    0.053055
     26          1           0       -3.710226   -2.210765   -0.737082
     27          1           0       -2.031364   -2.783396   -0.687098
     28          1           0       -2.588596   -1.784689   -2.045229
     29          1           0        3.484192    0.713193   -0.290435
     30          1           0        2.574502    0.827547    1.210629
     31          1           0        1.391476   -1.303515    0.682414
     32          1           0        1.353963    0.991008   -1.617853
     33          1           0        1.767251    3.029412    0.435356
     34          1           0        1.070895    3.252947   -1.001159
 ---------------------------------------------------------------------
 Rotational constants (GHZ):           0.8916734           0.4319699           0.3524195
 Standard basis: SVP (5D, 7F)
 There are   304 symmetry adapted cartesian basis functions of A   symmetry.
 There are   291 symmetry adapted basis functions of A   symmetry.
   291 basis functions,   484 primitive gaussians,   304 cartesian basis functions
    56 alpha electrons       55 beta electrons
       nuclear repulsion energy       994.0437565433 Hartrees.
 NAtoms=   34 NActive=   34 NUniq=   34 SFac= 1.00D+00 NAtFMM=   60 NAOKFM=F Big=F
 Integral buffers will be    131072 words long.
 Raffenetti 2 integral format.
 Two-electron integral symmetry is turned on.
 Nuclear repulsion after empirical dispersion term =      994.0127492565 Hartrees.
 One-electron integrals computed using PRISM.
 NBasis=   291 RedAO= T EigKep=  1.18D-03  NBF=   291
 NBsUse=   291 1.00D-06 EigRej= -1.00D+00 NBFU=   291
 ExpMin= 7.80D-02 ExpMax= 6.90D+03 ExpMxC= 1.04D+03 IAcc=3 IRadAn=         5 AccDes= 0.00D+00
 Harris functional with IExCor= 1009 and IRadAn=       5 diagonalized for initial guess.
 HarFok:  IExCor= 1009 AccDes= 0.00D+00 IRadAn=         5 IDoV= 1 UseB2=F ITyADJ=14
 ICtDFT=  3500011 ScaDFX=  1.000000  1.000000  1.000000  1.000000
 FoFCou: FMM=F IPFlag=           0 FMFlag=      100000 FMFlg1=           0
         NFxFlg=           0 DoJE=T BraDBF=F KetDBF=T FulRan=T
         wScrn=  0.000000 ICntrl=       500 IOpCl=  0 I1Cent=   200000004 NGrid=           0
         NMat0=    1 NMatS0=      1 NMatT0=    0 NMatD0=    1 NMtDS0=    0 NMtDT0=    0
 Petite list used in FoFCou.
 Initial guess <Sx>= 0.0000 <Sy>= 0.0000 <Sz>= 0.5000 <S**2>= 0.7500 S= 0.5000
 Requested convergence on RMS density matrix=1.00D-08 within  32 cycles.
 Requested convergence on MAX density matrix=1.00D-06.
 Requested convergence on             energy=1.00D-06.
 No special actions if energy rises.
 Integral accuracy reduced to 1.0D-05 until final iterations.
 Failed to achieve initial convergence to 1.0D-08 in 10 cycles.
 Switch to full accuracy anyway.
 Restarting incremental Fock formation.
 >>>>>>>>>> Convergence criterion not met.
 SCF Done:  E(UPBE1PBE) =  -848.814341123     A.U. after   33 cycles
            NFock= 32  Conv=0.85D-04     -V/T= 2.0079
 <Sx>= 0.0000 <Sy>= 0.0000 <Sz>= 0.5000 <S**2>= 0.7548 S= 0.5024
 <L.S>=  0.00000000000    
 Annihilation of the first spin contaminant:
 S**2 before annihilation     0.7548,   after     0.7500
 LinEq1:  Iter=  0 NonCon=     1 RMS=4.02D-04 Max=6.27D-02 NDo=     1
 AX will form     1 AO Fock derivatives at one time.
 LinEq1:  Iter=  1 NonCon=     1 RMS=3.16D-04 Max=4.54D-02 NDo=     1
 LinEq1:  Iter=  2 NonCon=     1 RMS=2.07D-04 Max=1.19D-02 NDo=     1
 LinEq1:  Iter=  3 NonCon=     1 RMS=1.45D-04 Max=7.93D-03 NDo=     1
 LinEq1:  Iter=  4 NonCon=     1 RMS=1.60D-04 Max=9.30D-03 NDo=     1
 LinEq1:  Iter=  5 NonCon=     1 RMS=7.55D-05 Max=3.06D-03 NDo=     1
 LinEq1:  Iter=  6 NonCon=     1 RMS=4.66D-05 Max=1.60D-03 NDo=     1
 LinEq1:  Iter=  7 NonCon=     1 RMS=3.06D-05 Max=7.76D-04 NDo=     1
 LinEq1:  Iter=  8 NonCon=     1 RMS=2.02D-05 Max=9.53D-04 NDo=     1
 LinEq1:  Iter=  9 NonCon=     1 RMS=9.95D-06 Max=3.00D-04 NDo=     1
 LinEq1:  Iter= 10 NonCon=     1 RMS=4.92D-06 Max=2.51D-04 NDo=     1
 LinEq1:  Iter= 11 NonCon=     1 RMS=2.71D-06 Max=1.32D-04 NDo=     1
 LinEq1:  Iter= 12 NonCon=     1 RMS=1.03D-06 Max=3.01D-05 NDo=     1
 LinEq1:  Iter= 13 NonCon=     1 RMS=5.62D-07 Max=1.78D-05 NDo=     1
 LinEq1:  Iter= 14 NonCon=     1 RMS=3.04D-07 Max=1.26D-05 NDo=     1
 LinEq1:  Iter= 15 NonCon=     1 RMS=2.24D-07 Max=1.18D-05 NDo=     1
 LinEq1:  Iter= 16 NonCon=     1 RMS=1.30D-07 Max=4.44D-06 NDo=     1
 LinEq1:  Iter= 17 NonCon=     1 RMS=7.58D-08 Max=2.62D-06 NDo=     1
 LinEq1:  Iter= 18 NonCon=     1 RMS=3.51D-08 Max=9.62D-07 NDo=     1
 LinEq1:  Iter= 19 NonCon=     1 RMS=1.62D-08 Max=4.74D-07 NDo=     1
 LinEq1:  Iter= 20 NonCon=     1 RMS=6.79D-09 Max=3.15D-07 NDo=     1
 LinEq1:  Iter= 21 NonCon=     0 RMS=3.16D-09 Max=1.48D-07 NDo=     1
 Linear equations converged to 1.617D-08 1.617D-07 after    21 iterations.
     Minimum is close to point  4 DX=  8.83D-02 DF= -5.15D-07 DXR=  3.17D-02 DFR=  2.52D-03 which will be used.
 LinEq1:  Iter=  0 NonCon=     1 RMS=2.33D-04 Max=3.50D-02 NDo=     1
 LinEq1:  Iter=  1 NonCon=     1 RMS=3.69D-04 Max=5.17D-02 NDo=     1
 LinEq1:  Iter=  2 NonCon=     1 RMS=3.36D-04 Max=2.15D-02 NDo=     1
 LinEq1:  Iter=  3 NonCon=     1 RMS=2.16D-04 Max=1.36D-02 NDo=     1
 LinEq1:  Iter=  4 NonCon=     1 RMS=2.24D-04 Max=1.26D-02 NDo=     1
 LinEq1:  Iter=  5 NonCon=     1 RMS=8.68D-05 Max=5.70D-03 NDo=     1
 LinEq1:  Iter=  6 NonCon=     1 RMS=5.69D-05 Max=1.68D-03 NDo=     1
 LinEq1:  Iter=  7 NonCon=     1 RMS=4.47D-05 Max=1.98D-03 NDo=     1
 LinEq1:  Iter=  8 NonCon=     1 RMS=2.47D-05 Max=9.29D-04 NDo=     1
 LinEq1:  Iter=  9 NonCon=     1 RMS=1.27D-05 Max=5.04D-04 NDo=     1
 LinEq1:  Iter= 10 NonCon=     1 RMS=7.08D-06 Max=2.77D-04 NDo=     1
 LinEq1:  Iter= 11 NonCon=     1 RMS=3.92D-06 Max=1.27D-04 NDo=     1
 LinEq1:  Iter= 12 NonCon=     1 RMS=2.16D-06 Max=8.33D-05 NDo=     1
 LinEq1:  Iter= 13 NonCon=     1 RMS=1.65D-06 Max=5.52D-05 NDo=     1
 LinEq1:  Iter= 14 NonCon=     1 RMS=6.36D-07 Max=2.26D-05 NDo=     1
 LinEq1:  Iter= 15 NonCon=     1 RMS=3.54D-07 Max=1.37D-05 NDo=     1
 LinEq1:  Iter= 16 NonCon=     1 RMS=1.79D-07 Max=5.76D-06 NDo=     1
 LinEq1:  Iter= 17 NonCon=     1 RMS=9.76D-08 Max=3.24D-06 NDo=     1
 LinEq1:  Iter= 18 NonCon=     1 RMS=4.67D-08 Max=2.33D-06 NDo=     1
 LinEq1:  Iter= 19 NonCon=     1 RMS=2.31D-08 Max=8.10D-07 NDo=     1
 LinEq1:  Iter= 20 NonCon=     1 RMS=9.72D-09 Max=2.70D-07 NDo=     1
 LinEq1:  Iter= 21 NonCon=     1 RMS=4.87D-09 Max=1.93D-07 NDo=     1
 LinEq1:  Iter= 22 NonCon=     0 RMS=2.49D-09 Max=7.49D-08 NDo=     1
 Linear equations converged to 1.617D-08 1.617D-07 after    22 iterations.
     Accept linear search using points  1 and  2.
     Minimum is close to point  2 DX= -4.19D-02 DF= -3.11D-07 DXR=  4.38D-02 DFR=  2.60D-03 which will be used.
 LinEq1:  Iter=  0 NonCon=     1 RMS=3.54D-04 Max=5.48D-02 NDo=     1
 LinEq1:  Iter=  1 NonCon=     1 RMS=2.46D-04 Max=3.20D-02 NDo=     1
 LinEq1:  Iter=  2 NonCon=     1 RMS=3.21D-04 Max=2.82D-02 NDo=     1
 LinEq1:  Iter=  3 NonCon=     1 RMS=1.62D-04 Max=8.89D-03 NDo=     1
 LinEq1:  Iter=  4 NonCon=     1 RMS=1.38D-04 Max=6.20D-03 NDo=     1
 LinEq1:  Iter=  5 NonCon=     1 RMS=8.30D-05 Max=4.81D-03 NDo=     1
 LinEq1:  Iter=  6 NonCon=     1 RMS=5.44D-05 Max=2.85D-03 NDo=     1
 LinEq1:  Iter=  7 NonCon=     1 RMS=3.70D-05 Max=1.85D-03 NDo=     1
 LinEq1:  Iter=  8 NonCon=     1 RMS=2.03D-05 Max=8.80D-04 NDo=     1
 LinEq1:  Iter=  9 NonCon=     1 RMS=1.05D-05 Max=4.29D-04 NDo=     1
 LinEq1:  Iter= 10 NonCon=     1 RMS=5.47D-06 Max=2.52D-04 NDo=     1
 LinEq1:  Iter= 11 NonCon=     1 RMS=2.73D-06 Max=9.04D-05 NDo=     1
 LinEq1:  Iter= 12 NonCon=     1 RMS=1.22D-06 Max=3.54D-05 NDo=     1
 LinEq1:  Iter= 13 NonCon=     1 RMS=9.81D-07 Max=4.03D-05 NDo=     1
 LinEq1:  Iter= 14 NonCon=     1 RMS=6.01D-07 Max=1.71D-05 NDo=     1
 LinEq1:  Iter= 15 NonCon=     1 RMS=3.20D-07 Max=1.29D-05 NDo=     1
 LinEq1:  Iter= 16 NonCon=     1 RMS=1.67D-07 Max=7.78D-06 NDo=     1
 LinEq1:  Iter= 17 NonCon=     1 RMS=8.70D-08 Max=2.98D-06 NDo=     1
 LinEq1:  Iter= 18 NonCon=     1 RMS=3.98D-08 Max=8.56D-07 NDo=     1
 LinEq1:  Iter= 19 NonCon=     1 RMS=1.83D-08 Max=4.77D-07 NDo=     1
 LinEq1:  Iter= 20 NonCon=     1 RMS=9.50D-09 Max=2.51D-07 NDo=     1
 LinEq1:  Iter= 21 NonCon=     0 RMS=4.67D-09 Max=1.24D-07 NDo=     1
 Linear equations converged to 1.617D-08 1.617D-07 after    21 iterations.
     Accept linear search using points  2 and  3.
     Minimum is close to point  3 DX= -1.23D-01 DF= -1.86D-07 DXR=  7.79D-02 DFR=  2.03D-03 which will be used.
 LinEq1:  Iter=  0 NonCon=     1 RMS=8.24D-05 Max=1.18D-02 NDo=     1
 LinEq1:  Iter=  1 NonCon=     1 RMS=1.22D-04 Max=1.73D-02 NDo=     1
 LinEq1:  Iter=  2 NonCon=     1 RMS=6.18D-05 Max=3.68D-03 NDo=     1
 LinEq1:  Iter=  3 NonCon=     1 RMS=3.84D-05 Max=2.89D-03 NDo=     1
 LinEq1:  Iter=  4 NonCon=     1 RMS=4.33D-05 Max=1.40D-03 NDo=     1
 LinEq1:  Iter=  5 NonCon=     1 RMS=2.03D-05 Max=1.03D-03 NDo=     1
 LinEq1:  Iter=  6 NonCon=     1 RMS=1.30D-05 Max=8.87D-04 NDo=     1
 LinEq1:  Iter=  7 NonCon=     1 RMS=8.42D-06 Max=3.48D-04 NDo=     1
 LinEq1:  Iter=  8 NonCon=     1 RMS=5.41D-06 Max=2.31D-04 NDo=     1
 LinEq1:  Iter=  9 NonCon=     1 RMS=2.67D-06 Max=1.60D-04 NDo=     1
 LinEq1:  Iter= 10 NonCon=     1 RMS=1.53D-06 Max=7.12D-05 NDo=     1
 LinEq1:  Iter= 11 NonCon=     1 RMS=6.93D-07 Max=3.03D-05 NDo=     1
 LinEq1:  Iter= 12 NonCon=     1 RMS=5.24D-07 Max=1.81D-05 NDo=     1
 LinEq1:  Iter= 13 NonCon=     1 RMS=3.12D-07 Max=1.08D-05 NDo=     1
 LinEq1:  Iter= 14 NonCon=     1 RMS=1.72D-07 Max=5.53D-06 NDo=     1
 LinEq1:  Iter= 15 NonCon=     1 RMS=8.76D-08 Max=3.65D-06 NDo=     1
 LinEq1:  Iter= 16 NonCon=     1 RMS=4.14D-08 Max=1.73D-06 NDo=     1
 LinEq1:  Iter= 17 NonCon=     1 RMS=1.94D-08 Max=6.36D-07 NDo=     1
 LinEq1:  Iter= 18 NonCon=     1 RMS=9.57D-09 Max=3.23D-07 NDo=     1
 LinEq1:  Iter= 19 NonCon=     1 RMS=4.27D-09 Max=2.02D-07 NDo=     1
 LinEq1:  Iter= 20 NonCon=     0 RMS=2.01D-09 Max=4.76D-08 NDo=     1
 Linear equations converged to 1.617D-08 1.617D-07 after    20 iterations.
     Accept linear search using points  1 and  2.
 LinEq1:  Iter=  0 NonCon=     1 RMS=2.23D-06 Max=9.87D-05 NDo=     1
 LinEq1:  Iter=  1 NonCon=     1 RMS=5.73D-06 Max=7.73D-04 NDo=     1
 LinEq1:  Iter=  2 NonCon=     1 RMS=8.04D-06 Max=9.19D-04 NDo=     1
 LinEq1:  Iter=  3 NonCon=     1 RMS=3.52D-06 Max=1.76D-04 NDo=     1
 LinEq1:  Iter=  4 NonCon=     1 RMS=1.99D-06 Max=1.37D-04 NDo=     1
 LinEq1:  Iter=  5 NonCon=     1 RMS=1.30D-06 Max=4.93D-05 NDo=     1
 LinEq1:  Iter=  6 NonCon=     1 RMS=1.23D-06 Max=6.14D-05 NDo=     1
 LinEq1:  Iter=  7 NonCon=     1 RMS=1.08D-06 Max=6.92D-05 NDo=     1
 LinEq1:  Iter=  8 NonCon=     1 RMS=5.37D-07 Max=2.12D-05 NDo=     1
 LinEq1:  Iter=  9 NonCon=     1 RMS=5.06D-07 Max=3.23D-05 NDo=     1
 LinEq1:  Iter= 10 NonCon=     1 RMS=2.31D-07 Max=1.35D-05 NDo=     1
 LinEq1:  Iter= 11 NonCon=     1 RMS=1.04D-07 Max=5.08D-06 NDo=     1
 LinEq1:  Iter= 12 NonCon=     1 RMS=6.03D-08 Max=1.73D-06 NDo=     1
 LinEq1:  Iter= 13 NonCon=     1 RMS=4.46D-08 Max=1.79D-06 NDo=     1
 LinEq1:  Iter= 14 NonCon=     1 RMS=2.39D-08 Max=9.43D-07 NDo=     1
 LinEq1:  Iter= 15 NonCon=     1 RMS=1.40D-08 Max=6.24D-07 NDo=     1
 LinEq1:  Iter= 16 NonCon=     1 RMS=6.47D-09 Max=2.31D-07 NDo=     1
 LinEq1:  Iter= 17 NonCon=     1 RMS=3.50D-09 Max=1.08D-07 NDo=     1
 LinEq1:  Iter= 18 NonCon=     1 RMS=1.65D-09 Max=6.44D-08 NDo=     1
 LinEq1:  Iter= 19 NonCon=     1 RMS=7.47D-10 Max=2.21D-08 NDo=     1
 LinEq1:  Iter= 20 NonCon=     0 RMS=3.94D-10 Max=1.33D-08 NDo=     1
 Linear equations converged to 1.941D-09 1.941D-08 after    20 iterations.
     Minimum is close to point  2 DX=  3.21D-03 DF= -5.68D-13 DXR=  3.20D-03 DFR=  1.02D-05 which will be used.
 LinEq1:  Iter=  0 NonCon=     1 RMS=8.68D-08 Max=1.32D-05 NDo=     1
 LinEq1:  Iter=  1 NonCon=     1 RMS=7.34D-08 Max=1.08D-05 NDo=     1
 LinEq1:  Iter=  2 NonCon=     1 RMS=4.65D-08 Max=2.74D-06 NDo=     1
 LinEq1:  Iter=  3 NonCon=     1 RMS=3.10D-08 Max=2.39D-06 NDo=     1
 LinEq1:  Iter=  4 NonCon=     1 RMS=2.93D-08 Max=1.01D-06 NDo=     1
 LinEq1:  Iter=  5 NonCon=     1 RMS=1.65D-08 Max=7.70D-07 NDo=     1
 LinEq1:  Iter=  6 NonCon=     1 RMS=1.33D-08 Max=8.29D-07 NDo=     1
 LinEq1:  Iter=  7 NonCon=     1 RMS=6.36D-09 Max=1.77D-07 NDo=     1
 LinEq1:  Iter=  8 NonCon=     1 RMS=5.46D-09 Max=2.82D-07 NDo=     1
 LinEq1:  Iter=  9 NonCon=     1 RMS=2.61D-09 Max=5.99D-08 NDo=     1
 LinEq1:  Iter= 10 NonCon=     1 RMS=1.33D-09 Max=4.57D-08 NDo=     1
 LinEq1:  Iter= 11 NonCon=     1 RMS=7.20D-10 Max=3.20D-08 NDo=     1
 LinEq1:  Iter= 12 NonCon=     1 RMS=3.22D-10 Max=1.31D-08 NDo=     1
 LinEq1:  Iter= 13 NonCon=     1 RMS=1.73D-10 Max=5.78D-09 NDo=     1
 LinEq1:  Iter= 14 NonCon=     1 RMS=1.12D-10 Max=6.51D-09 NDo=     1
 LinEq1:  Iter= 15 NonCon=     1 RMS=7.59D-11 Max=4.57D-09 NDo=     1
 LinEq1:  Iter= 16 NonCon=     1 RMS=3.84D-11 Max=1.10D-09 NDo=     1
 LinEq1:  Iter= 17 NonCon=     1 RMS=2.24D-11 Max=1.00D-09 NDo=     1
 LinEq1:  Iter= 18 NonCon=     1 RMS=9.37D-12 Max=1.98D-10 NDo=     1
 LinEq1:  Iter= 19 NonCon=     0 RMS=4.38D-12 Max=1.09D-10 NDo=     1
 Linear equations converged to 1.745D-11 1.745D-10 after    19 iterations.
 LinEq1:  Iter=  0 NonCon=     1 RMS=1.06D-07 Max=1.62D-05 NDo=     1
 LinEq1:  Iter=  1 NonCon=     1 RMS=9.00D-08 Max=1.32D-05 NDo=     1
 LinEq1:  Iter=  2 NonCon=     1 RMS=5.71D-08 Max=3.36D-06 NDo=     1
 LinEq1:  Iter=  3 NonCon=     1 RMS=3.80D-08 Max=2.93D-06 NDo=     1
 LinEq1:  Iter=  4 NonCon=     1 RMS=3.59D-08 Max=1.24D-06 NDo=     1
 LinEq1:  Iter=  5 NonCon=     1 RMS=2.02D-08 Max=9.44D-07 NDo=     1
 LinEq1:  Iter=  6 NonCon=     1 RMS=1.63D-08 Max=1.02D-06 NDo=     1
 LinEq1:  Iter=  7 NonCon=     1 RMS=7.80D-09 Max=2.17D-07 NDo=     1
 LinEq1:  Iter=  8 NonCon=     1 RMS=6.70D-09 Max=3.46D-07 NDo=     1
 LinEq1:  Iter=  9 NonCon=     1 RMS=3.21D-09 Max=7.35D-08 NDo=     1
 LinEq1:  Iter= 10 NonCon=     1 RMS=1.63D-09 Max=5.60D-08 NDo=     1
 LinEq1:  Iter= 11 NonCon=     1 RMS=8.83D-10 Max=3.93D-08 NDo=     1
 LinEq1:  Iter= 12 NonCon=     1 RMS=3.95D-10 Max=1.61D-08 NDo=     1
 LinEq1:  Iter= 13 NonCon=     1 RMS=2.12D-10 Max=7.08D-09 NDo=     1
 LinEq1:  Iter= 14 NonCon=     1 RMS=1.38D-10 Max=7.98D-09 NDo=     1
 LinEq1:  Iter= 15 NonCon=     1 RMS=9.31D-11 Max=5.61D-09 NDo=     1
 LinEq1:  Iter= 16 NonCon=     1 RMS=4.71D-11 Max=1.35D-09 NDo=     1
 LinEq1:  Iter= 17 NonCon=     1 RMS=2.76D-11 Max=1.24D-09 NDo=     1
 LinEq1:  Iter= 18 NonCon=     1 RMS=1.15D-11 Max=2.52D-10 NDo=     1
 LinEq1:  Iter= 19 NonCon=     0 RMS=5.40D-12 Max=1.34D-10 NDo=     1
 Linear equations converged to 2.140D-11 2.140D-10 after    19 iterations.
 QCLLim is confused:  Bigger=T Turned=T
 NLin=  3 IMin12=  1  2 I12=  0  2 IX=  1 XLMin= 0.000D+00 XLMax= 0.000D+00
 X = 0.000D+00 1.000D+00 2.000D+00
 DE= 0.000D+00 1.160D-11 2.387D-11
 Restarting incremental Fock formation.
 Search did not lower the energy significantly.
 No lower point found -- using Newton-Raphson step.
 SCF Done:  E(UPBE1PBE) =  -848.814817711     a.u. after    8 cycles
            Convg  =    0.1799D-09                   174 Fock formations.
              S**2 =  0.7548                  -V/T =  2.0079
 <Sx>= 0.0000 <Sy>= 0.0000 <Sz>= 0.5000 <S**2>= 0.7548 S= 0.5024
 <L.S>=  0.00000000000    
 Annihilation of the first spin contaminant:
 S**2 before annihilation     0.7548,   after     0.7500

 **********************************************************************

            Population analysis using the SCF density.

 **********************************************************************

 Orbital symmetries:
 Alpha Orbitals:
       Occupied  (A) (A) (A) (A) (A) (A) (A) (A) (A) (A) (A) (A)
                 (A) (A) (A) (A) (A) (A) (A) (A) (A) (A) (A) (A)
                 (A) (A) (A) (A) (A) (A) (A) (A) (A) (A) (A) (A)
                 (A) (A) (A) (A) (A) (A) (A) (A) (A) (A) (A) (A)
                 (A) (A) (A) (A) (A) (A) (A) (A)
       Virtual   (A) (A) (A) (A) (A) (A) (A) (A) (A) (A) (A) (A)
                 (A) (A) (A) (A) (A) (A) (A) (A) (A) (A) (A) (A)
                 (A) (A) (A) (A) (A) (A) (A) (A) (A) (A) (A) (A)
                 (A) (A) (A) (A) (A) (A) (A) (A) (A) (A) (A) (A)
                 (A) (A) (A) (A) (A) (A) (A) (A) (A) (A) (A) (A)
                 (A) (A) (A) (A) (A) (A) (A) (A) (A) (A) (A) (A)
                 (A) (A) (A) (A) (A) (A) (A) (A) (A) (A) (A) (A)
                 (A) (A) (A) (A) (A) (A) (A) (A) (A) (A) (A) (A)
                 (A) (A) (A) (A) (A) (A) (A) (A) (A) (A) (A) (A)
                 (A) (A) (A) (A) (A) (A) (A) (A) (A) (A) (A) (A)
                 (A) (A) (A) (A) (A) (A) (A) (A) (A) (A) (A) (A)
                 (A) (A) (A) (A) (A) (A) (A) (A) (A) (A) (A) (A)
                 (A) (A) (A) (A) (A) (A) (A) (A) (A) (A) (A) (A)
                 (A) (A) (A) (A) (A) (A) (A) (A) (A) (A) (A) (A)
                 (A) (A) (A) (A) (A) (A) (A) (A) (A) (A) (A) (A)
                 (A) (A) (A) (A) (A) (A) (A) (A) (A) (A) (A) (A)
                 (A) (A) (A) (A) (A) (A) (A) (A) (A) (A) (A) (A)
                 (A) (A) (A) (A) (A) (A) (A) (A) (A) (A) (A) (A)
                 (A) (A) (A) (A) (A) (A) (A) (A) (A) (A) (A) (A)
                 (A) (A) (A) (A) (A) (A) (A)
 Beta  Orbitals:
       Occupied  (A) (A) (A) (A) (A) (A) (A) (A) (A) (A) (A) (A)
                 (A) (A) (A) (A) (A) (A) (A) (A) (A) (A) (A) (A)
                 (A) (A) (A) (A) (A) (A) (A) (A) (A) (A) (A) (A)
                 (A) (A) (A) (A) (A) (A) (A) (A) (A) (A) (A) (A)
                 (A) (A) (A) (A) (A) (A) (A)
       Virtual   (A) (A) (A) (A) (A) (A) (A) (A) (A) (A) (A) (A)
                 (A) (A) (A) (A) (A) (A) (A) (A) (A) (A) (A) (A)
                 (A) (A) (A) (A) (A) (A) (A) (A) (A) (A) (A) (A)
                 (A) (A) (A) (A) (A) (A) (A) (A) (A) (A) (A) (A)
                 (A) (A) (A) (A) (A) (A) (A) (A) (A) (A) (A) (A)
                 (A) (A) (A) (A) (A) (A) (A) (A) (A) (A) (A) (A)
                 (A) (A) (A) (A) (A) (A) (A) (A) (A) (A) (A) (A)
                 (A) (A) (A) (A) (A) (A) (A) (A) (A) (A) (A) (A)
                 (A) (A) (A) (A) (A) (A) (A) (A) (A) (A) (A) (A)
                 (A) (A) (A) (A) (A) (A) (A) (A) (A) (A) (A) (A)
                 (A) (A) (A) (A) (A) (A) (A) (A) (A) (A) (A) (A)
                 (A) (A) (A) (A) (A) (A) (A) (A) (A) (A) (A) (A)
                 (A) (A) (A) (A) (A) (A) (A) (A) (A) (A) (A) (A)
                 (A) (A) (A) (A) (A) (A) (A) (A) (A) (A) (A) (A)
                 (A) (A) (A) (A) (A) (A) (A) (A) (A) (A) (A) (A)
                 (A) (A) (A) (A) (A) (A) (A) (A) (A) (A) (A) (A)
                 (A) (A) (A) (A) (A) (A) (A) (A) (A) (A) (A) (A)
                 (A) (A) (A) (A) (A) (A) (A) (A) (A) (A) (A) (A)
                 (A) (A) (A) (A) (A) (A) (A) (A) (A) (A) (A) (A)
                 (A) (A) (A) (A) (A) (A) (A) (A)
 The electronic state is 2-A.
 Alpha  occ. eigenvalues --  -66.40069 -19.42565 -19.40948 -14.66690 -10.57286
 Alpha  occ. eigenvalues --  -10.48447 -10.40124 -10.37345 -10.34653 -10.34426
 Alpha  occ. eigenvalues --  -10.34160 -10.33810 -10.33703  -5.48806  -3.82825
 Alpha  occ. eigenvalues --   -3.82429  -3.82340  -1.29613  -1.21536  -1.15707
 Alpha  occ. eigenvalues --   -0.98639  -0.92684  -0.87170  -0.84242  -0.82426
 Alpha  occ. eigenvalues --   -0.81952  -0.81599  -0.78934  -0.74855  -0.73424
 Alpha  occ. eigenvalues --   -0.69337  -0.68658  -0.66127  -0.64978  -0.61402
 Alpha  occ. eigenvalues --   -0.60442  -0.58058  -0.57699  -0.56547  -0.56172
 Alpha  occ. eigenvalues --   -0.55402  -0.54742  -0.54245  -0.53386  -0.53126
 Alpha  occ. eigenvalues --   -0.52265  -0.52105  -0.51808  -0.51696  -0.50455
 Alpha  occ. eigenvalues --   -0.48938  -0.47774  -0.46566  -0.46288  -0.44596
 Alpha  occ. eigenvalues --   -0.44114
 Alpha virt. eigenvalues --   -0.19401  -0.10750  -0.07621  -0.06468  -0.05251
 Alpha virt. eigenvalues --   -0.04589  -0.03193  -0.02689  -0.02378  -0.00931
 Alpha virt. eigenvalues --   -0.00551  -0.00015   0.00469   0.01179   0.01850
 Alpha virt. eigenvalues --    0.02402   0.03519   0.03608   0.04157   0.04399
 Alpha virt. eigenvalues --    0.05114   0.05263   0.05989   0.06167   0.06588
 Alpha virt. eigenvalues --    0.06985   0.07592   0.08604   0.09283   0.11256
 Alpha virt. eigenvalues --    0.11839   0.12994   0.14489   0.19230   0.19756
 Alpha virt. eigenvalues --    0.22167   0.22861   0.26680   0.28562   0.28973
 Alpha virt. eigenvalues --    0.29721   0.30279   0.31845   0.32100   0.34611
 Alpha virt. eigenvalues --    0.35735   0.38188   0.40399   0.40752   0.41104
 Alpha virt. eigenvalues --    0.42599   0.43321   0.45006   0.45668   0.46696
 Alpha virt. eigenvalues --    0.47211   0.47773   0.48514   0.49101   0.49263
 Alpha virt. eigenvalues --    0.50863   0.50978   0.51373   0.51544   0.52363
 Alpha virt. eigenvalues --    0.52760   0.53679   0.54210   0.54714   0.54865
 Alpha virt. eigenvalues --    0.55603   0.56389   0.57471   0.57666   0.57796
 Alpha virt. eigenvalues --    0.59097   0.59184   0.59401   0.59754   0.60512
 Alpha virt. eigenvalues --    0.61386   0.61745   0.62171   0.62826   0.63526
 Alpha virt. eigenvalues --    0.63818   0.65062   0.65816   0.67201   0.68796
 Alpha virt. eigenvalues --    0.70973   0.71878   0.75532   0.78096   0.79150
 Alpha virt. eigenvalues --    0.79270   0.82693   0.84236   0.85639   0.85957
 Alpha virt. eigenvalues --    0.87336   0.89565   0.94299   0.95556   0.98504
 Alpha virt. eigenvalues --    1.00073   1.01419   1.03222   1.05870   1.06562
 Alpha virt. eigenvalues --    1.08612   1.10148   1.12039   1.14085   1.14750
 Alpha virt. eigenvalues --    1.16141   1.20138   1.23491   1.24461   1.26416
 Alpha virt. eigenvalues --    1.29156   1.33280   1.35676   1.39341   1.40927
 Alpha virt. eigenvalues --    1.42271   1.42341   1.43648   1.44213   1.44530
 Alpha virt. eigenvalues --    1.46796   1.48527   1.51084   1.52476   1.55275
 Alpha virt. eigenvalues --    1.57887   1.59828   1.60939   1.61691   1.62002
 Alpha virt. eigenvalues --    1.62963   1.64294   1.64890   1.65420   1.66325
 Alpha virt. eigenvalues --    1.67718   1.68522   1.68645   1.69473   1.71033
 Alpha virt. eigenvalues --    1.71497   1.71690   1.72302   1.72826   1.74821
 Alpha virt. eigenvalues --    1.76164   1.76447   1.78671   1.81357   1.81921
 Alpha virt. eigenvalues --    1.82032   1.82414   1.83658   1.84066   1.84438
 Alpha virt. eigenvalues --    1.84806   1.85168   1.86207   1.87497   1.89737
 Alpha virt. eigenvalues --    1.90818   1.91715   1.93323   1.94889   1.95531
 Alpha virt. eigenvalues --    1.98679   2.05589   2.09269   2.11493   2.13796
 Alpha virt. eigenvalues --    2.15385   2.15832   2.17583   2.18273   2.21579
 Alpha virt. eigenvalues --    2.24583   2.27490   2.31061   2.32202   2.32464
 Alpha virt. eigenvalues --    2.33932   2.34125   2.35106   2.36054   2.37288
 Alpha virt. eigenvalues --    2.38502   2.38538   2.44060   2.45538   2.48910
 Alpha virt. eigenvalues --    2.51187   2.51378   2.53282   2.54275   2.56351
 Alpha virt. eigenvalues --    2.58062   2.58553   2.60046   2.60874   2.61606
 Alpha virt. eigenvalues --    2.66742   2.68854   2.72468   2.75484   2.76737
 Alpha virt. eigenvalues --    2.79780   2.80116   2.81863   2.82864   2.83405
 Alpha virt. eigenvalues --    2.83791   2.84435   2.85184   2.85699   2.86437
 Alpha virt. eigenvalues --    2.93457   2.96120   2.97413   2.98936   3.00670
 Alpha virt. eigenvalues --    3.04129   3.11375   3.18322   3.37687   3.46136
  Beta  occ. eigenvalues --  -66.40055 -19.42410 -19.40663 -14.65352 -10.57139
  Beta  occ. eigenvalues --  -10.48362 -10.40085 -10.37342 -10.34558 -10.34336
  Beta  occ. eigenvalues --  -10.34159 -10.33766 -10.33696  -5.48792  -3.82805
  Beta  occ. eigenvalues --   -3.82370  -3.82336  -1.29141  -1.21001  -1.13461
  Beta  occ. eigenvalues --   -0.98035  -0.91995  -0.86815  -0.83746  -0.82102
  Beta  occ. eigenvalues --   -0.81754  -0.81507  -0.78425  -0.73992  -0.72335
  Beta  occ. eigenvalues --   -0.68816  -0.68225  -0.65702  -0.64443  -0.60996
  Beta  occ. eigenvalues --   -0.59637  -0.57897  -0.56757  -0.56261  -0.55482
  Beta  occ. eigenvalues --   -0.54603  -0.54123  -0.53422  -0.53007  -0.52078
  Beta  occ. eigenvalues --   -0.51939  -0.51833  -0.51525  -0.50432  -0.48032
  Beta  occ. eigenvalues --   -0.47668  -0.46543  -0.46206  -0.43667  -0.43339
  Beta virt. eigenvalues --   -0.40126  -0.18936  -0.10336  -0.07466  -0.06177
  Beta virt. eigenvalues --   -0.05125  -0.04467  -0.03038  -0.02381  -0.02195
  Beta virt. eigenvalues --   -0.00799  -0.00363   0.00300   0.00562   0.01307
  Beta virt. eigenvalues --    0.01935   0.02536   0.03667   0.03749   0.04237
  Beta virt. eigenvalues --    0.04544   0.05224   0.05373   0.06142   0.06377
  Beta virt. eigenvalues --    0.06683   0.07094   0.07741   0.08848   0.09458
  Beta virt. eigenvalues --    0.11466   0.11904   0.13162   0.14831   0.19568
  Beta virt. eigenvalues --    0.19977   0.22403   0.23056   0.26799   0.28733
  Beta virt. eigenvalues --    0.29144   0.29800   0.30428   0.31928   0.32283
  Beta virt. eigenvalues --    0.34825   0.36181   0.38626   0.40572   0.41017
  Beta virt. eigenvalues --    0.41497   0.42839   0.43718   0.45110   0.45894
  Beta virt. eigenvalues --    0.47212   0.47557   0.47940   0.48713   0.49259
  Beta virt. eigenvalues --    0.49404   0.50951   0.51119   0.51508   0.51922
  Beta virt. eigenvalues --    0.52635   0.53271   0.53784   0.54443   0.54991
  Beta virt. eigenvalues --    0.55274   0.55875   0.56701   0.57684   0.57805
  Beta virt. eigenvalues --    0.57924   0.59188   0.59330   0.59543   0.60363
  Beta virt. eigenvalues --    0.60911   0.61464   0.61938   0.62296   0.63049
  Beta virt. eigenvalues --    0.63678   0.64262   0.65228   0.66114   0.67378
  Beta virt. eigenvalues --    0.68883   0.71560   0.72097   0.75710   0.78389
  Beta virt. eigenvalues --    0.79494   0.79555   0.83047   0.84474   0.86105
  Beta virt. eigenvalues --    0.86255   0.87489   0.89909   0.94557   0.95708
  Beta virt. eigenvalues --    0.98608   1.00342   1.01788   1.03717   1.06027
  Beta virt. eigenvalues --    1.06717   1.09124   1.10416   1.12301   1.14239
  Beta virt. eigenvalues --    1.14951   1.16489   1.20284   1.23645   1.24710
  Beta virt. eigenvalues --    1.26552   1.29418   1.33489   1.35898   1.39515
  Beta virt. eigenvalues --    1.41415   1.42317   1.42372   1.43721   1.44236
  Beta virt. eigenvalues --    1.44586   1.46862   1.48676   1.51375   1.52724
  Beta virt. eigenvalues --    1.55700   1.58378   1.60274   1.61066   1.61770
  Beta virt. eigenvalues --    1.62094   1.63076   1.64412   1.65033   1.65681
  Beta virt. eigenvalues --    1.66540   1.67891   1.68632   1.68835   1.69672
  Beta virt. eigenvalues --    1.71242   1.71568   1.71729   1.72408   1.72876
  Beta virt. eigenvalues --    1.74921   1.76362   1.76681   1.78811   1.81467
  Beta virt. eigenvalues --    1.82070   1.82196   1.82584   1.83803   1.84226
  Beta virt. eigenvalues --    1.84615   1.84950   1.85505   1.86372   1.87808
  Beta virt. eigenvalues --    1.89894   1.90954   1.91861   1.93577   1.95326
  Beta virt. eigenvalues --    1.96188   1.99652   2.05797   2.09631   2.11735
  Beta virt. eigenvalues --    2.14127   2.15655   2.16014   2.17686   2.18664
  Beta virt. eigenvalues --    2.22251   2.24773   2.27657   2.31292   2.32400
  Beta virt. eigenvalues --    2.32608   2.34121   2.34255   2.35686   2.36236
  Beta virt. eigenvalues --    2.37464   2.38609   2.38696   2.44207   2.46273
  Beta virt. eigenvalues --    2.49315   2.51388   2.51952   2.53741   2.55592
  Beta virt. eigenvalues --    2.57004   2.58693   2.59396   2.61005   2.61040
  Beta virt. eigenvalues --    2.61800   2.67292   2.69287   2.73000   2.75640
  Beta virt. eigenvalues --    2.76804   2.79945   2.80328   2.82003   2.83007
  Beta virt. eigenvalues --    2.83499   2.83899   2.84521   2.85218   2.85808
  Beta virt. eigenvalues --    2.86704   2.94089   2.96424   2.97554   2.99240
  Beta virt. eigenvalues --    3.00753   3.05112   3.11811   3.19924   3.38148
  Beta virt. eigenvalues --    3.46559
          Condensed to atoms (all electrons):
               1          2          3          4          5          6
     1  C    4.639287  -0.060907  -0.000002  -0.000001  -0.000014  -0.074763
     2  C   -0.060907   4.570659  -0.000004   0.000000  -0.000001  -0.054391
     3  C   -0.000002  -0.000004   4.858354  -0.043621  -0.045294   0.000039
     4  C   -0.000001   0.000000  -0.043621   4.868406  -0.036149  -0.000008
     5  C   -0.000014  -0.000001  -0.045294  -0.036149   4.863843   0.000005
     6  C   -0.074763  -0.054391   0.000039  -0.000008   0.000005   4.916802
     7  C    0.396643   0.405340  -0.000106  -0.000003  -0.000018   0.329439
     8  C    0.002282   0.011070  -0.000283  -0.000438   0.000015   0.277202
     9  C   -0.006334  -0.000549  -0.003681  -0.003377   0.001648  -0.035681
    10  N   -0.000133  -0.000123  -0.000004   0.000014  -0.000000  -0.053322
    11  O   -0.000010  -0.000014  -0.004043  -0.004757   0.000051  -0.002614
    12  O   -0.002329   0.000134  -0.010732  -0.010767  -0.008692  -0.005503
    13  Si   0.000210  -0.000012   0.449327   0.426778   0.406478  -0.000571
    14  H    0.393876  -0.006843  -0.000000  -0.000000   0.000005   0.009099
    15  H    0.400906  -0.004709  -0.000000   0.000000   0.000001  -0.003784
    16  H    0.385433   0.007933   0.000004   0.000010  -0.000181  -0.012292
    17  H   -0.007194   0.401517   0.000000  -0.000000   0.000000   0.008095
    18  H    0.008275   0.391731   0.000000  -0.000000   0.000000  -0.004925
    19  H   -0.005740   0.399441  -0.000000  -0.000000  -0.000000  -0.011603
    20  H    0.000000   0.000000   0.378748  -0.001921  -0.000755  -0.000000
    21  H    0.000001  -0.000002   0.371878  -0.002456   0.003288  -0.000005
    22  H    0.000004   0.000008   0.377857   0.002939  -0.001198   0.000010
    23  H    0.000000  -0.000000  -0.001663   0.381233  -0.001117   0.000000
    24  H    0.000000  -0.000000   0.003009   0.374915  -0.002285   0.000001
    25  H    0.000000  -0.000000  -0.003227   0.368794   0.003290   0.000002
    26  H    0.000000   0.000000  -0.001354  -0.002283   0.381460  -0.000000
    27  H    0.000002   0.000001  -0.002189   0.002893   0.377673  -0.000000
    28  H   -0.000014   0.000000   0.003127  -0.002128   0.376686   0.000001
    29  H   -0.008767  -0.006032  -0.000001  -0.000000   0.000000   0.391990
    30  H    0.009263  -0.002549   0.000016   0.000002  -0.000001   0.371931
    31  H   -0.032879  -0.024982  -0.000279   0.000046  -0.000098  -0.021245
    32  H    0.009132   0.000114   0.000021   0.000053  -0.000069  -0.007777
    33  H    0.000035  -0.000037  -0.000001   0.000007  -0.000000  -0.005383
    34  H   -0.000008   0.000013  -0.000001   0.000017  -0.000000   0.006401
               7          8          9         10         11         12
     1  C    0.396643   0.002282  -0.006334  -0.000133  -0.000010  -0.002329
     2  C    0.405340   0.011070  -0.000549  -0.000123  -0.000014   0.000134
     3  C   -0.000106  -0.000283  -0.003681  -0.000004  -0.004043  -0.010732
     4  C   -0.000003  -0.000438  -0.003377   0.000014  -0.004757  -0.010767
     5  C   -0.000018   0.000015   0.001648  -0.000000   0.000051  -0.008692
     6  C    0.329439   0.277202  -0.035681  -0.053322  -0.002614  -0.005503
     7  C    4.954563  -0.056147   0.002420   0.005665  -0.000013   0.003936
     8  C   -0.056147   5.309000   0.133050   0.315005  -0.093067  -0.087692
     9  C    0.002420   0.133050   4.680583  -0.022505   0.633806   0.341075
    10  N    0.005665   0.315005  -0.022505   6.066525  -0.009151   0.001392
    11  O   -0.000013  -0.093067   0.633806  -0.009151   7.685460  -0.065258
    12  O    0.003936  -0.087692   0.341075   0.001392  -0.065258   7.969837
    13  Si   0.000821   0.005343  -0.034884   0.000180   0.014231   0.278482
    14  H   -0.017089  -0.000098   0.000113   0.000003   0.000001  -0.000021
    15  H   -0.030912  -0.004339   0.000658  -0.000020   0.000000   0.000030
    16  H   -0.020185   0.008796  -0.004329   0.000159   0.000010   0.006133
    17  H   -0.022226  -0.000503   0.000004   0.000003   0.000000  -0.000000
    18  H   -0.019501   0.000211  -0.000125  -0.000006  -0.000000   0.000003
    19  H   -0.024009   0.000509   0.000083  -0.000016   0.000000  -0.000005
    20  H    0.000000   0.000010   0.000171  -0.000000   0.000033   0.000943
    21  H    0.000006   0.000109  -0.000380  -0.000001   0.006496  -0.000626
    22  H   -0.000087   0.000007   0.000508   0.000001  -0.000109   0.000157
    23  H   -0.000000   0.000012   0.000146  -0.000000   0.000028   0.000936
    24  H    0.000000   0.000023   0.000464  -0.000004   0.000033   0.000369
    25  H    0.000000   0.000046   0.000042  -0.000015   0.005656  -0.000925
    26  H   -0.000000   0.000003  -0.000008  -0.000000   0.000001   0.000725
    27  H    0.000004   0.000017  -0.000248   0.000000  -0.000004   0.000111
    28  H   -0.000001   0.000023  -0.000215  -0.000000  -0.000001   0.000293
    29  H   -0.012217  -0.033798   0.009655  -0.001200  -0.000021  -0.000194
    30  H   -0.018678  -0.010161  -0.015312  -0.006368   0.002418   0.000064
    31  H    0.373982  -0.023557   0.015610   0.000079  -0.000074   0.001222
    32  H   -0.007862   0.375425  -0.019561  -0.025003   0.002099   0.003190
    33  H    0.000156  -0.028236  -0.004236   0.356651   0.012542   0.000368
    34  H   -0.000305  -0.028209   0.004788   0.358027   0.001742   0.000022
              13         14         15         16         17         18
     1  C    0.000210   0.393876   0.400906   0.385433  -0.007194   0.008275
     2  C   -0.000012  -0.006843  -0.004709   0.007933   0.401517   0.391731
     3  C    0.449327  -0.000000  -0.000000   0.000004   0.000000   0.000000
     4  C    0.426778  -0.000000   0.000000   0.000010  -0.000000  -0.000000
     5  C    0.406478   0.000005   0.000001  -0.000181   0.000000   0.000000
     6  C   -0.000571   0.009099  -0.003784  -0.012292   0.008095  -0.004925
     7  C    0.000821  -0.017089  -0.030912  -0.020185  -0.022226  -0.019501
     8  C    0.005343  -0.000098  -0.004339   0.008796  -0.000503   0.000211
     9  C   -0.034884   0.000113   0.000658  -0.004329   0.000004  -0.000125
    10  N    0.000180   0.000003  -0.000020   0.000159   0.000003  -0.000006
    11  O    0.014231   0.000001   0.000000   0.000010   0.000000  -0.000000
    12  O    0.278482  -0.000021   0.000030   0.006133  -0.000000   0.000003
    13  Si  11.963524   0.000014  -0.000003   0.000430   0.000004   0.000001
    14  H    0.000014   0.586621  -0.018456  -0.015927   0.005156   0.000287
    15  H   -0.000003  -0.018456   0.609511  -0.024977  -0.001003  -0.000109
    16  H    0.000430  -0.015927  -0.024977   0.631978   0.000381  -0.000483
    17  H    0.000004   0.005156  -0.001003   0.000381   0.589476  -0.018943
    18  H    0.000001   0.000287  -0.000109  -0.000483  -0.018943   0.612090
    19  H    0.000000  -0.000821   0.004348  -0.000196  -0.019872  -0.021112
    20  H   -0.009232  -0.000000   0.000000  -0.000000  -0.000000  -0.000000
    21  H   -0.016716  -0.000000   0.000000  -0.000002   0.000000   0.000001
    22  H   -0.025562  -0.000001   0.000000  -0.000009  -0.000001   0.000000
    23  H   -0.009448  -0.000000  -0.000000  -0.000000   0.000000   0.000000
    24  H   -0.021591  -0.000000  -0.000000  -0.000004   0.000000   0.000000
    25  H   -0.015078  -0.000000   0.000000  -0.000001   0.000000   0.000000
    26  H   -0.005036  -0.000000  -0.000000   0.000001  -0.000000  -0.000000
    27  H   -0.018027   0.000045  -0.000000   0.000110  -0.000001  -0.000000
    28  H   -0.019210  -0.000001  -0.000000   0.000108  -0.000000  -0.000000
    29  H    0.000044  -0.000034   0.006149  -0.000715  -0.000044  -0.001159
    30  H   -0.000200  -0.000333  -0.000116  -0.000255  -0.000169   0.005440
    31  H    0.000667  -0.006343   0.008162  -0.007297  -0.003498  -0.010334
    32  H   -0.000387  -0.000509   0.000950   0.003065   0.000001  -0.000019
    33  H   -0.000034   0.000000  -0.000001  -0.000026   0.000001  -0.000002
    34  H    0.000031  -0.000001   0.000003   0.000023  -0.000000   0.000000
              19         20         21         22         23         24
     1  C   -0.005740   0.000000   0.000001   0.000004   0.000000   0.000000
     2  C    0.399441   0.000000  -0.000002   0.000008  -0.000000  -0.000000
     3  C   -0.000000   0.378748   0.371878   0.377857  -0.001663   0.003009
     4  C   -0.000000  -0.001921  -0.002456   0.002939   0.381233   0.374915
     5  C   -0.000000  -0.000755   0.003288  -0.001198  -0.001117  -0.002285
     6  C   -0.011603  -0.000000  -0.000005   0.000010   0.000000   0.000001
     7  C   -0.024009   0.000000   0.000006  -0.000087  -0.000000   0.000000
     8  C    0.000509   0.000010   0.000109   0.000007   0.000012   0.000023
     9  C    0.000083   0.000171  -0.000380   0.000508   0.000146   0.000464
    10  N   -0.000016  -0.000000  -0.000001   0.000001  -0.000000  -0.000004
    11  O    0.000000   0.000033   0.006496  -0.000109   0.000028   0.000033
    12  O   -0.000005   0.000943  -0.000626   0.000157   0.000936   0.000369
    13  Si   0.000000  -0.009232  -0.016716  -0.025562  -0.009448  -0.021591
    14  H   -0.000821  -0.000000  -0.000000  -0.000001  -0.000000  -0.000000
    15  H    0.004348   0.000000   0.000000   0.000000  -0.000000  -0.000000
    16  H   -0.000196  -0.000000  -0.000002  -0.000009  -0.000000  -0.000004
    17  H   -0.019872  -0.000000   0.000000  -0.000001   0.000000   0.000000
    18  H   -0.021112  -0.000000   0.000001   0.000000   0.000000   0.000000
    19  H    0.609854   0.000000   0.000000   0.000000   0.000000  -0.000000
    20  H    0.000000   0.540888  -0.009004  -0.010847   0.000543  -0.000066
    21  H    0.000000  -0.009004   0.560272  -0.011437   0.000038  -0.000084
    22  H    0.000000  -0.010847  -0.011437   0.572553  -0.000059  -0.000079
    23  H    0.000000   0.000543   0.000038  -0.000059   0.533747  -0.009692
    24  H   -0.000000  -0.000066  -0.000084  -0.000079  -0.009692   0.571858
    25  H   -0.000000   0.000081   0.001317  -0.000066  -0.009276  -0.013652
    26  H    0.000000   0.000182  -0.000065  -0.000182   0.000396  -0.000037
    27  H    0.000000  -0.000189  -0.000086   0.001652  -0.000084  -0.000072
    28  H   -0.000000  -0.000087  -0.000086  -0.000098  -0.000110   0.001496
    29  H    0.008048   0.000000   0.000001  -0.000000   0.000000   0.000000
    30  H   -0.001380  -0.000000  -0.000004   0.000005  -0.000000   0.000000
    31  H    0.007537   0.000006  -0.000013   0.001024  -0.000000  -0.000002
    32  H   -0.000006  -0.000000  -0.000008   0.000002  -0.000001   0.000002
    33  H    0.000002   0.000000  -0.000002   0.000000  -0.000000  -0.000001
    34  H    0.000001  -0.000000  -0.000001   0.000000  -0.000000  -0.000004
              25         26         27         28         29         30
     1  C    0.000000   0.000000   0.000002  -0.000014  -0.008767   0.009263
     2  C   -0.000000   0.000000   0.000001   0.000000  -0.006032  -0.002549
     3  C   -0.003227  -0.001354  -0.002189   0.003127  -0.000001   0.000016
     4  C    0.368794  -0.002283   0.002893  -0.002128  -0.000000   0.000002
     5  C    0.003290   0.381460   0.377673   0.376686   0.000000  -0.000001
     6  C    0.000002  -0.000000  -0.000000   0.000001   0.391990   0.371931
     7  C    0.000000  -0.000000   0.000004  -0.000001  -0.012217  -0.018678
     8  C    0.000046   0.000003   0.000017   0.000023  -0.033798  -0.010161
     9  C    0.000042  -0.000008  -0.000248  -0.000215   0.009655  -0.015312
    10  N   -0.000015  -0.000000   0.000000  -0.000000  -0.001200  -0.006368
    11  O    0.005656   0.000001  -0.000004  -0.000001  -0.000021   0.002418
    12  O   -0.000925   0.000725   0.000111   0.000293  -0.000194   0.000064
    13  Si  -0.015078  -0.005036  -0.018027  -0.019210   0.000044  -0.000200
    14  H   -0.000000  -0.000000   0.000045  -0.000001  -0.000034  -0.000333
    15  H    0.000000  -0.000000  -0.000000  -0.000000   0.006149  -0.000116
    16  H   -0.000001   0.000001   0.000110   0.000108  -0.000715  -0.000255
    17  H    0.000000  -0.000000  -0.000001  -0.000000  -0.000044  -0.000169
    18  H    0.000000  -0.000000  -0.000000  -0.000000  -0.001159   0.005440
    19  H   -0.000000   0.000000   0.000000  -0.000000   0.008048  -0.001380
    20  H    0.000081   0.000182  -0.000189  -0.000087   0.000000  -0.000000
    21  H    0.001317  -0.000065  -0.000086  -0.000086   0.000001  -0.000004
    22  H   -0.000066  -0.000182   0.001652  -0.000098  -0.000000   0.000005
    23  H   -0.009276   0.000396  -0.000084  -0.000110   0.000000  -0.000000
    24  H   -0.013652  -0.000037  -0.000072   0.001496   0.000000   0.000000
    25  H    0.566541  -0.000050  -0.000083  -0.000101   0.000000  -0.000001
    26  H   -0.000050   0.537007  -0.012322  -0.010670   0.000000  -0.000000
    27  H   -0.000083  -0.012322   0.562191  -0.011172  -0.000000  -0.000000
    28  H   -0.000101  -0.010670  -0.011172   0.564732  -0.000000  -0.000000
    29  H    0.000000   0.000000  -0.000000  -0.000000   0.578585  -0.023525
    30  H   -0.000001  -0.000000  -0.000000  -0.000000  -0.023525   0.616856
    31  H   -0.000003   0.000002   0.000050  -0.000004   0.007429  -0.007462
    32  H   -0.000030   0.000000   0.000003   0.000003  -0.007371   0.006381
    33  H   -0.000009  -0.000000   0.000000  -0.000000  -0.001184   0.006950
    34  H   -0.000001   0.000000   0.000000   0.000000   0.000114  -0.000396
              31         32         33         34
     1  C   -0.032879   0.009132   0.000035  -0.000008
     2  C   -0.024982   0.000114  -0.000037   0.000013
     3  C   -0.000279   0.000021  -0.000001  -0.000001
     4  C    0.000046   0.000053   0.000007   0.000017
     5  C   -0.000098  -0.000069  -0.000000  -0.000000
     6  C   -0.021245  -0.007777  -0.005383   0.006401
     7  C    0.373982  -0.007862   0.000156  -0.000305
     8  C   -0.023557   0.375425  -0.028236  -0.028209
     9  C    0.015610  -0.019561  -0.004236   0.004788
    10  N    0.000079  -0.025003   0.356651   0.358027
    11  O   -0.000074   0.002099   0.012542   0.001742
    12  O    0.001222   0.003190   0.000368   0.000022
    13  Si   0.000667  -0.000387  -0.000034   0.000031
    14  H   -0.006343  -0.000509   0.000000  -0.000001
    15  H    0.008162   0.000950  -0.000001   0.000003
    16  H   -0.007297   0.003065  -0.000026   0.000023
    17  H   -0.003498   0.000001   0.000001  -0.000000
    18  H   -0.010334  -0.000019  -0.000002   0.000000
    19  H    0.007537  -0.000006   0.000002   0.000001
    20  H    0.000006  -0.000000   0.000000  -0.000000
    21  H   -0.000013  -0.000008  -0.000002  -0.000001
    22  H    0.001024   0.000002   0.000000   0.000000
    23  H   -0.000000  -0.000001  -0.000000  -0.000000
    24  H   -0.000002   0.000002  -0.000001  -0.000004
    25  H   -0.000003  -0.000030  -0.000009  -0.000001
    26  H    0.000002   0.000000  -0.000000   0.000000
    27  H    0.000050   0.000003   0.000000   0.000000
    28  H   -0.000004   0.000003  -0.000000   0.000000
    29  H    0.007429  -0.007371  -0.001184   0.000114
    30  H   -0.007462   0.006381   0.006950  -0.000396
    31  H    0.665247  -0.000146   0.000001   0.000017
    32  H   -0.000146   0.541285   0.006175  -0.006475
    33  H    0.000001   0.006175   0.482238  -0.019324
    34  H    0.000017  -0.006475  -0.019324   0.493791
          Atomic-Atomic Spin Densities.
               1          2          3          4          5          6
     1  C   -0.000090   0.000090  -0.000001   0.000000  -0.000004  -0.000510
     2  C    0.000090   0.002824   0.000001  -0.000000   0.000000  -0.000471
     3  C   -0.000001   0.000001   0.022893  -0.002620   0.001676   0.000021
     4  C    0.000000  -0.000000  -0.002620   0.048565  -0.002614  -0.000005
     5  C   -0.000004   0.000000   0.001676  -0.002614   0.038942   0.000005
     6  C   -0.000510  -0.000471   0.000021  -0.000005   0.000005   0.003212
     7  C    0.000493   0.000326  -0.000012   0.000002  -0.000007   0.003707
     8  C    0.000227   0.000033  -0.000025   0.000067  -0.000019   0.010589
     9  C    0.000029  -0.000024   0.000249   0.000424  -0.000353  -0.002263
    10  N   -0.000003  -0.000013   0.000004  -0.000008   0.000000  -0.001589
    11  O    0.000000   0.000003  -0.000970   0.000839  -0.000030   0.000873
    12  O    0.000022   0.000000  -0.000235  -0.000844  -0.000443   0.000881
    13  Si  -0.000015   0.000000   0.003673   0.008144   0.009587  -0.000113
    14  H    0.000010  -0.000005  -0.000000   0.000000  -0.000000  -0.000021
[...]
 ,0.00028254,-0.00011209,-0.00003007,0.00017571,-0.00059569,0.00037366,
 0.00026967,0.00002356,-0.00000819,-0.00001255,-0.00001521,-0.00001539,
 0.00004847,0.00000347,0.00006411,-0.00000924,-0.00000219,-0.00000212,0
 .00000550,0.00000601,0.00000527,-0.00000536,-0.00000609,-0.00000649,0.
 00000672,-0.00000138,0.00000006,0.00000442,0.00000034,-0.00000545,-0.0
 0000701,0.00000543,-0.00000706,0.00000107,-0.02371489,0.06364273,-0.00
 019951,0.00107999,0.00119613,0.00093106,0.00029928,0.00060015,0.000073
 63,-0.00003170,-0.00002732,0.00003415,0.00005007,0.00005633,0.00004047
 ,0.00002218,0.00003035,0.08894645,-0.05408236,-0.25908443,0.00343233,-
 0.00328504,-0.01178369,-0.00309659,-0.00074797,0.00060236,-0.00091655,
 -0.00027192,0.00044535,-0.00132445,0.00059053,0.00145145,0.00028685,-0
 .00022158,0.00075104,0.00039083,0.00006834,-0.00000138,-0.00021759,-0.
 00010818,-0.00008560,-0.00012199,0.00008579,0.00011791,0.00009963,-0.0
 0059939,0.00033827,0.00002166,-0.00000426,-0.00000156,-0.00011161,0.00
 014969,0.00032017,0.00005438,-0.00003929,-0.00012537,-0.00067736,-0.00
 001851,0.00014361,0.00003064,-0.00000354,-0.00000137,-0.00003107,-0.00
 001280,0.00004457,0.00000662,0.00006667,0.00001015,-0.00001287,0.00000
 103,-0.00000381,0.00001567,-0.00000008,-0.00001005,0.00000291,0.000002
 27,-0.00002505,-0.00000265,0.00000523,-0.00000549,-0.00000731,0.000010
 59,-0.00000654,0.00000619,-0.00001561,0.00000555,-0.09370991,0.0643949
 2,0.27829089,-0.00218311,-0.00264424,-0.00213583,0.00088423,-0.0014275
 6,0.00107749,0.00000995,-0.00002700,-0.00001594,0.00001561,-0.00001310
 ,-0.00000403,0.00000576,0.00000048,0.00003244,-0.04844160,0.02239884,-
 0.01756674,0.00149331,-0.01188469,0.01088737,-0.01053162,0.02867626,-0
 .02130787,0.00101070,0.00149636,-0.00340663,0.00241287,0.00150292,0.00
 081081,0.00081438,-0.00150082,0.00109251,0.00013163,-0.00073455,0.0005
 3707,-0.00010472,0.00005751,-0.00007462,0.00041234,-0.00103841,0.00047
 753,-0.00000580,0.00035483,-0.00021117,0.00013310,-0.00006486,-0.00008
 493,0.00000793,0.00028011,-0.00000454,-0.00036626,0.00023286,-0.000586
 79,-0.00001330,0.00003123,0.00000113,0.00000566,-0.00000143,-0.0000019
 0,0.00001210,0.00000564,0.00002143,0.00000275,0.00001086,0.00001573,0.
 00000371,-0.00000353,0.00000617,0.00000536,0.00000458,-0.00000528,-0.0
 0001008,-0.00000244,0.00001959,0.00000205,0.00000441,0.00000165,-0.000
 00916,-0.00000233,-0.00000537,0.00001276,-0.00001043,-0.00000423,0.001
 37972,-0.00936537,0.00650818,0.05836183,-0.00342315,-0.00251132,-0.003
 60983,0.00157084,0.00107191,0.00057620,-0.00001197,0.00003030,0.000020
 57,-0.00001063,0.00005577,0.00003652,0.00000047,0.00002886,-0.00000314
 ,0.02447413,-0.21032282,0.12931741,0.00249347,-0.02008247,0.01552430,0
 .00206002,-0.00625590,0.00232633,0.00001302,-0.00160287,0.00263358,-0.
 00107741,0.00140246,-0.00113768,-0.00098297,0.00120873,-0.00096961,-0.
 00012590,0.00092392,-0.00031739,0.00000663,-0.00032145,-0.00010340,0.0
 0026981,-0.00124841,0.00089825,-0.00003374,0.00024455,-0.00002206,0.00
 013088,0.00014794,-0.00003320,0.00026808,0.00019309,-0.00030615,-0.000
 73477,0.00048372,-0.00027269,-0.00002782,0.00000851,-0.00009286,0.0000
 1488,0.00001019,-0.00000446,-0.00000117,-0.00001642,-0.00002610,0.0000
 0389,0.00001217,0.00002694,-0.00001007,-0.00000746,0.00000472,0.000007
 10,-0.00000065,-0.00000495,0.00001642,0.00000243,-0.00001954,0.0000023
 9,0.00000602,-0.00000880,-0.00001100,0.00001755,-0.00000030,0.00000178
 ,-0.00000171,0.00000110,-0.00142073,0.00646083,-0.00584379,-0.02513778
 ,0.22824160,-0.00152301,-0.00164534,-0.00046477,0.00036726,-0.00031585
 ,0.00048274,-0.00002278,-0.00000195,-0.00000457,-0.00000028,0.00000295
 ,-0.00001311,-0.00001122,-0.00000051,-0.00001298,-0.02112108,0.1321027
 8,-0.14796929,0.00129960,-0.01105306,0.00757350,0.00174547,0.00029834,
 -0.00388757,-0.00069264,-0.00007174,0.00105257,0.00028013,-0.00009007,
 0.00070363,0.00020754,-0.00026498,-0.00046199,0.00012024,0.00012028,0.
 00004226,0.00004274,0.00001580,0.00002992,-0.00005644,-0.00051175,0.00
 051143,-0.00013904,-0.00019906,0.00024297,0.00005317,0.00017349,-0.000
 08637,0.00021602,-0.00016766,0.00000674,0.00005497,0.00021596,0.000117
 60,-0.00007488,0.00017260,-0.00013165,-0.00000556,0.00000150,0.0000006
 9,0.00001584,-0.00000423,-0.00000546,0.00000009,-0.00000982,0.00000447
 ,0.00000435,-0.00000410,0.00000259,0.00000032,-0.00000252,-0.00000016,
 -0.00000113,-0.00000511,0.00000754,0.00000109,-0.00000214,0.00000326,-
 0.00000049,-0.00000167,0.00000007,0.00000023,0.00000263,-0.00000241,-0
 .00451280,0.02067822,-0.01397155,0.02452244,-0.13913036,0.15457242,0.0
 0100094,-0.00008285,-0.00434464,-0.01442280,0.00731367,0.02971171,-0.0
 0010303,-0.00001103,-0.00014351,0.00000102,-0.00001303,-0.00004885,-0.
 00000134,-0.00003637,-0.00003224,0.00428474,-0.00481130,-0.01731149,-0
 .07441276,0.01554206,0.07919661,0.00141590,0.00060477,-0.00070278,-0.0
 0096043,-0.00030182,-0.00036255,-0.00006367,-0.00006400,0.00041792,-0.
 00120776,-0.00075981,0.00046592,-0.00044135,0.00006774,-0.00015284,-0.
 00014115,0.00015231,0.00029094,-0.00004607,-0.00013368,0.00046454,0.00
 063821,0.00062933,-0.00061689,0.00042371,-0.00049563,-0.00028741,0.001
 00944,-0.00058474,0.00008378,0.00116281,0.00009588,-0.00031247,-0.0059
 7721,0.00181647,-0.00089094,-0.00003107,0.00000692,0.00001028,0.000068
 20,0.00007397,0.00008391,0.00005060,-0.00001037,0.00011287,0.00000799,
 0.00000551,-0.00000116,-0.00000845,-0.00000423,0.00000436,0.00000355,0
 .00000317,0.00000243,0.00000885,-0.00000461,0.00000376,0.00000161,0.00
 001336,0.00000496,-0.00000546,0.00000864,-0.00000284,-0.00151138,-0.00
 268866,-0.00131770,0.00040018,0.00051367,0.00056331,0.08885634,-0.0090
 9852,0.00395881,0.02677149,0.00374195,-0.00199198,-0.00723930,-0.00004
 390,0.00014378,-0.00012736,-0.00007315,-0.00006444,-0.00008226,-0.0000
 6211,-0.00001779,-0.00007575,0.00812864,-0.00721696,-0.02394413,0.0149
 1949,-0.05698906,-0.04547548,0.00116051,0.00063145,-0.00015074,-0.0016
 5118,0.00107923,-0.00184347,-0.00035649,0.00008310,0.00059381,0.000612
 18,-0.00040250,0.00125302,0.00029676,-0.00069785,0.00012210,0.00028503
 ,0.00034948,0.00044976,-0.00034525,0.00080432,-0.00045918,0.00054188,-
 0.00431457,0.00343017,0.00028196,0.00106538,-0.00065566,-0.00043284,0.
 00040820,0.00058192,-0.00009030,-0.00004903,-0.00043639,0.00155630,0.0
 0023224,0.00038650,-0.00010645,-0.00005657,0.00003178,0.00001724,0.000
 07170,0.00001400,0.00004506,-0.00034495,-0.00009108,0.00001974,0.00001
 407,-0.00001232,-0.00002445,-0.00001944,0.00002186,-0.00000767,0.00000
 716,0.00000454,0.00000603,-0.00001175,0.00000491,0.00000788,-0.0000075
 3,0.00002209,-0.00001605,0.00002117,-0.00000610,-0.00310371,-0.0034631
 5,-0.00209775,0.00054708,0.00054671,-0.00003359,-0.01673926,0.06637999
 ,0.00571025,-0.00236354,-0.01693788,-0.00144556,0.00069732,0.00281384,
 0.00006758,-0.00044633,-0.00027681,0.00008977,-0.00004940,-0.00002742,
 0.00008447,-0.00006796,0.00000371,0.00350165,-0.00305061,-0.01131107,0
 .07920008,-0.04672748,-0.26469215,0.00063151,0.00019112,-0.00021339,-0
 .00172602,-0.00137693,-0.00148490,-0.00028102,0.00023518,0.00050521,0.
 00158995,0.00089257,0.00066942,0.00051218,0.00045819,0.00030669,-0.000
 69822,0.00047980,0.00029222,0.00011494,0.00010623,0.00064979,-0.000587
 85,0.00348653,-0.00071146,-0.00040575,-0.00022470,0.00053295,0.0002514
 5,0.00011628,0.00045546,0.00021900,-0.00014044,0.00056859,-0.00079971,
 0.00027083,0.00131150,0.00009640,-0.00000355,-0.00009371,0.00008660,-0
 .00006360,0.00000607,0.00014476,0.00018624,-0.00000913,0.00000872,0.00
 001082,-0.00000964,0.00000080,0.00001348,-0.00000361,-0.00002168,-0.00
 000371,0.00002394,0.00000419,-0.00000820,0.00001215,-0.00000759,0.0000
 2031,-0.00002314,0.00000548,-0.00000388,0.,-0.00140062,-0.00167426,0.0
 0034602,-0.00024263,-0.00002503,0.00067968,-0.08473287,0.04924548,0.28
 694293,-0.00059782,0.00031453,-0.00006501,-0.00007359,-0.00030190,0.00
 003906,-0.00006878,0.00012952,0.00007598,-0.00003862,0.00023364,0.0001
 4973,-0.00000350,0.00003423,-0.00006582,-0.00214303,0.02195736,-0.0176
 3241,0.00100635,0.00100687,0.00024204,-0.07077751,0.05215290,-0.045421
 00,0.00132840,-0.00225896,0.00587909,0.00597164,-0.01970355,0.00995852
 ,-0.00003090,0.00053716,0.00117423,-0.00128226,0.00139605,0.00207507,0
 .00028261,-0.00065629,-0.00010320,0.00042670,-0.00022888,0.00022703,-0
 .00026459,-0.00002423,0.00018097,0.00023685,-0.00126254,-0.00025363,-0
 .00008418,-0.00009729,0.00001643,0.00021774,-0.00013210,0.00014311,0.0
 0002110,0.00004876,0.00001052,0.00004848,-0.00001825,-0.00000656,-0.00
 003282,-0.00001438,-0.00001370,-0.00000268,-0.00000588,-0.00002298,-0.
 00006978,-0.00007213,-0.00002630,-0.00002366,-0.00000863,0.00001570,0.
 00003933,0.00001265,-0.00004387,-0.00001152,-0.00001214,-0.00003030,0.
 00001963,0.00000677,0.00000642,-0.00004444,0.00003241,0.00001508,0.000
 71819,-0.00031197,0.00038798,-0.00581546,0.00029991,-0.00025498,-0.000
 09226,-0.00013614,-0.00003391,0.07069784,-0.00112532,0.00039125,0.0000
 3974,0.00000463,-0.00037059,0.00008079,0.00004202,-0.00012091,-0.00003
 377,-0.00001149,-0.00032981,-0.00014626,-0.00003041,-0.00002029,0.0001
 1907,0.00389264,-0.00007194,0.00116297,0.00015202,0.00010722,-0.000461
 78,0.04539925,-0.20829703,0.12722018,0.00164354,0.00004983,-0.00325368
 ,0.00298808,-0.02878457,0.01431567,0.00009031,0.00003359,-0.00075458,0
 .00138900,-0.00222950,-0.00462957,0.00012486,0.00093015,0.00007406,0.0
 0025611,-0.00016034,-0.00008522,0.00000052,-0.00003568,0.00003222,-0.0
 0050401,-0.00119511,-0.00037242,-0.00007449,0.00002999,-0.00002676,0.0
 0010150,-0.00000069,0.00001362,0.00002968,0.00002869,0.00001010,-0.000
 05832,0.00001776,0.00000277,0.00000082,0.00000521,-0.00001042,-0.00002
 984,-0.00000881,-0.00002626,0.00006000,0.00010633,-0.00000977,-0.00001
 368,0.00001190,0.00001238,-0.00001223,0.00001443,-0.00000214,-0.000021
 54,0.00000266,0.00002324,-0.00000106,-0.00008459,-0.00001134,0.0000316
 1,0.00000287,-0.00001524,0.00022634,0.00042579,0.00015896,-0.00057385,
 0.00082943,-0.00013202,-0.00009715,-0.00013314,-0.00006290,-0.05054643
 ,0.24024230,-0.00048171,0.00046161,0.00019253,-0.00002645,-0.00024682,
 -0.00011847,-0.00002284,0.00023501,0.00030535,-0.00021377,0.00004710,0
 .00024610,-0.00013537,0.00022275,0.00018653,0.00167508,-0.00063540,-0.
 00014323,-0.00017765,0.00066994,-0.00000167,-0.04432722,0.14153691,-0.
 13171589,-0.00190677,0.01178892,-0.02052363,0.00111686,-0.01631608,0.0
 0788416,0.00169762,-0.00164134,-0.00390474,-0.00062071,0.00112064,0.00
 226059,0.00078245,-0.00110149,-0.00127260,0.00034738,-0.00013938,-0.00
 004877,0.00023870,-0.00000726,-0.00015115,0.00017632,-0.00060895,0.000
 30504,-0.00006290,0.00002955,-0.00000328,0.00003629,-0.00003875,0.0000
 3210,0.00005963,0.00000602,0.00000653,0.00008237,0.00002118,0.00004318
 ,-0.00004749,-0.00000963,-0.00004584,-0.00003764,-0.00001713,-0.000035
 99,-0.00005071,-0.00000207,0.00003680,0.00002242,0.00001026,-0.0000175
 8,0.00003077,0.00003577,-0.00004477,-0.00002764,0.00005402,-0.00004034
 ,0.00001350,-0.00006180,0.00001911,0.00002562,-0.00002990,0.00000873,-
 0.00004918,-0.00001741,0.00042728,-0.00035598,0.00007359,0.00118075,-0
 .00010991,-0.00009861,-0.00015406,0.04432379,-0.13229207,0.14394365,0.
 00021005,0.00005446,0.00022367,-0.00002375,-0.00006110,0.00002218,-0.0
 0004007,-0.00015245,-0.00015712,0.00005204,-0.00025256,-0.00023806,0.0
 0000687,-0.00014437,-0.00007347,0.00337333,-0.00052272,0.00471400,-0.0
 0056151,0.00014654,-0.00054819,0.00801809,-0.01488658,0.00697553,0.000
 05751,0.00004443,0.00165788,-0.08177502,0.07892934,-0.05727814,-0.0005
 6792,-0.00037069,-0.00040446,0.00093592,-0.00153274,-0.00136668,-0.000
 06675,0.00100550,0.00062388,-0.00007620,0.00011467,-0.00006953,-0.0000
 1906,-0.00000633,0.00000147,-0.00008457,0.00013438,-0.00004972,0.00001
 847,0.00006650,-0.00001433,-0.00005718,0.00000473,-0.00006981,-0.00000
 566,-0.00002396,0.00000914,-0.00005577,-0.00000668,0.00000211,0.000057
 34,0.00001356,0.00003848,0.00000033,-0.00001669,0.00000111,0.00006840,
 0.00004207,-0.00000214,-0.00002572,0.00001650,0.00001093,-0.00003358,-
 0.00000859,0.00008206,0.00000925,-0.00002140,0.00003496,0.00000433,-0.
 00000066,0.00000442,-0.00000836,0.00002022,-0.00001148,-0.00107357,-0.
 00012124,-0.00008960,-0.00013402,0.00069471,-0.00127154,0.00011149,0.0
 0009238,0.00015235,-0.00014277,-0.00448741,-0.00261636,0.07177968,0.00
 019616,-0.00004351,-0.00001109,0.00002184,0.00021893,-0.00003082,-0.00
 005319,0.00037004,0.00044358,-0.00026599,0.00033683,0.00049181,-0.0001
 3612,0.00028758,0.00021146,0.00131262,0.00124474,-0.00236047,0.0001377
 3,-0.00023990,-0.00007345,0.00619613,-0.01425494,0.01574169,0.00194978
 ,-0.00577441,-0.00350819,0.08220971,-0.37749941,0.12558657,-0.00032201
 ,0.00118679,0.00144345,-0.00147941,0.00360935,0.00118340,0.00083235,-0
 .00194068,-0.00150145,-0.00002537,0.00007527,-0.00002180,0.00001738,-0
 .00000772,-0.00003163,-0.00010687,-0.00003502,0.00007040,0.00006655,-0
 .00002467,0.00002850,-0.00001906,-0.00000050,0.00003431,0.00001545,0.0
 0000014,-0.00001935,0.00011078,0.00003695,0.00000067,-0.00010983,-0.00
 003624,-0.00016047,-0.00002103,-0.00001877,-0.00002770,-0.00012985,-0.
 00006123,-0.00001686,0.00002304,0.00001616,-0.00002809,0.00014455,0.00
 007554,-0.00018246,-0.00001776,0.00005691,-0.00008064,0.00000741,-0.00
 003456,0.00000529,0.00002284,-0.00003124,0.00000311,0.00056463,0.00002
 785,0.00031496,-0.00120740,0.00027096,0.00012356,-0.00007664,-0.000027
 40,-0.00011394,-0.00217615,-0.00158404,-0.00288452,-0.08395226,0.38897
 244,0.00001740,-0.00024005,0.00001381,-0.00005272,0.00023390,0.0001452
 5,0.00000852,0.00002655,-0.00002227,0.00004208,0.00014295,0.00001174,0
 .00001993,0.00002540,-0.00005279,-0.00211695,-0.00134316,-0.00157318,0
 .00036697,0.00005752,-0.00036022,0.00729192,-0.01747767,0.00801490,-0.
 00119313,0.00124352,0.00214798,-0.05877575,0.13313340,-0.07935197,0.00
 057190,0.00168104,-0.00177629,-0.00037105,0.00073812,0.00042617,-0.000
 12509,-0.00031837,-0.00004555,-0.00008378,0.00009081,-0.00001550,0.000
 06008,0.00000708,-0.00001724,-0.00014603,0.00010597,0.00001013,0.00004
 798,-0.00004886,0.00000091,-0.00004618,0.00000744,-0.00001943,-0.00002
 922,-0.00000190,-0.00002522,0.00000546,-0.00001323,0.00000596,0.000012
 07,-0.00000199,0.00001842,0.00000998,-0.00000244,0.00000751,-0.0000058
 9,-0.00003400,0.00001734,0.00002149,-0.00002539,-0.00000466,-0.0000225
 5,-0.00004023,0.00000940,0.00000491,-0.00000603,0.00000372,-0.00000248
 ,0.00001512,-0.00000057,-0.00000221,-0.00000681,0.00000729,0.00099495,
 0.00019779,-0.00013036,-0.00022343,0.00054469,-0.00046544,-0.00003327,
 -0.00003123,-0.00002206,-0.00361421,0.00163114,0.00269568,0.05627903,-
 0.13228122,0.07160750,0.00000386,-0.00004306,-0.00003782,-0.00005900,-
 0.00010154,-0.00009487,-0.00012512,0.00030597,0.00036584,-0.00023762,0
 .00023253,0.00034471,-0.00015767,0.00019351,0.00015747,-0.00136201,-0.
 00416616,-0.00478184,-0.00028359,0.00099841,0.00030204,-0.00526496,0.0
 0629736,0.00129158,0.00137568,-0.00400926,-0.00330537,-0.35634010,0.03
 107603,-0.18807478,-0.00026322,0.00085558,0.00145947,-0.00183022,0.003
 23639,0.00139439,0.00104858,-0.00150309,-0.00111727,0.00002671,0.00001
 002,0.00004320,-0.00000273,-0.00002789,0.00000805,0.00000427,-0.000049
 82,0.00002962,-0.00005863,0.00000782,0.00003434,-0.00001421,0.00000477
 ,-0.00000534,-0.00004127,-0.00001377,0.00000384,0.00009688,0.00003152,
 0.00000408,-0.00008643,-0.00002839,-0.00013198,-0.00002841,-0.00002278
 ,-0.00003320,-0.00013301,-0.00007339,-0.00002991,-0.00004775,0.0000436
 8,0.00003181,0.00013498,0.00006449,-0.00011638,-0.00002411,0.00004365,
 -0.00007397,0.00001119,-0.00004120,0.00000936,0.00000233,0.00002863,-0
 .00000139,0.00106154,0.00006491,0.00056715,0.00009722,0.00016701,0.000
 19308,-0.00001939,0.00002736,-0.00008870,0.00058531,0.00115430,0.00064
 150,0.00004839,-0.00373000,0.00108927,0.36188249,0.00003403,0.00022191
 ,0.00001275,-0.00011786,-0.00062140,-0.00020131,0.00003572,0.00000026,
 0.00005120,-0.00002338,-0.00000108,0.00008393,-0.00000733,0.00005182,0
 .00007657,0.00052922,-0.00459422,-0.00085500,-0.00149304,0.00105510,0.
 00000869,-0.02654969,0.00884733,-0.01237709,-0.00124179,0.00020988,-0.
 00062201,0.03403200,-0.07419575,0.02607046,0.00020164,-0.00010495,0.00
 011824,0.00066080,-0.00046522,0.00031415,-0.00010718,-0.00013578,-0.00
 038652,0.00001866,-0.00003070,0.00000290,-0.00001909,-0.00001050,0.000
 01764,0.00007950,-0.00004527,-0.00000425,-0.00018337,0.00006238,-0.000
 01160,0.00003010,0.00000636,0.,0.00001154,0.00001178,0.00001672,0.0000
 1188,-0.00000094,0.00000271,0.00000064,-0.00000331,0.00000824,-0.00000
 663,0.00000950,-0.00000396,0.00000763,-0.00000011,0.00001418,0.0000438
 3,0.00001118,-0.00003914,0.00000134,0.00000071,-0.00000163,0.00000856,
 0.00001087,0.00000997,-0.00000808,-0.00001990,-0.00001040,0.00003916,-
 0.00004964,-0.00001194,-0.00005226,-0.00001770,0.00008326,0.00003584,0
 .00017384,-0.00026057,0.00006771,0.00001132,-0.00000392,-0.00019497,0.
 00019764,-0.00016465,0.02518844,0.00482776,0.01199013,-0.03103357,0.06
 458684,-0.00003236,0.00019917,0.00000715,-0.00001210,-0.00048097,-0.00
 029110,0.00001082,0.00030366,0.00028182,-0.00019423,0.00032108,0.00038
 761,-0.00006980,0.00027889,0.00012232,0.00477935,-0.00060028,0.0031527
 3,-0.00066170,0.00028685,0.00063664,-0.00981294,0.00821724,-0.00007431
 ,0.00211224,-0.00536922,-0.00290028,-0.18130524,0.02492645,-0.11055159
 ,-0.00040703,0.00042523,0.00134334,-0.00070893,0.00231297,0.00041674,0
 .00046277,-0.00171052,-0.00108698,0.00003959,-0.00004773,-0.00002375,0
 .00003890,-0.00000367,-0.00004269,0.00010456,-0.00008329,0.00009292,-0
 .00006491,0.00012323,-0.00001476,-0.00000284,0.00002344,0.00001358,0.0
 0011280,0.00001250,0.00000220,0.00008039,0.00002197,0.00000901,-0.0001
 0169,-0.00004058,-0.00011300,-0.00000628,-0.00000071,-0.00001223,-0.00
 007630,-0.00001350,0.00000483,0.00007166,-0.00003195,-0.00003632,0.000
 09645,0.00004214,-0.00019311,-0.00001616,0.00004420,-0.00006488,0.0000
 0627,-0.00001031,0.00000739,0.00001373,-0.00003727,0.00002532,-0.00068
 699,-0.00013608,0.00008599,0.00022633,-0.00005286,0.00026248,-0.000012
 95,-0.00007303,-0.00014975,0.00266712,-0.00257071,-0.00155209,-0.00657
 257,-0.00234861,-0.00126095,0.18992203,-0.02392776,0.11151568\\-0.0000
 0484,-0.00000428,0.00000045,-0.00000902,-0.00000815,0.00000035,-0.0000
 0510,-0.00000046,0.00000187,-0.00000873,0.00001553,0.00001914,-0.00000
 564,0.00000485,-0.00000002,0.00000680,0.00000471,0.00000026,0.00000874
 ,0.00001666,0.00000347,-0.00000950,0.00001774,0.00001367,0.,-0.0000395
 4,-0.00002775,0.00001565,0.00002538,0.00001706,-0.00000601,0.00001423,
 0.00000030,0.00002972,-0.00000466,-0.00001820,-0.00001535,0.00001485,0
 .00003581,0.00000079,-0.00000035,-0.00000059,0.00000161,0.00000256,-0.
 00000272,-0.00000131,-0.00000211,0.00000150,0.00000127,0.00000086,-0.0
 0000329,-0.00000021,-0.00000052,0.00000101,0.00000263,-0.00000261,-0.0
 0000067,0.00000383,0.00000097,0.00000019,0.00000124,-0.00000145,-0.000
 00055,0.00000079,-0.00000232,-0.00000509,-0.00000317,-0.00000799,-0.00
 000171,0.00000312,-0.00000177,-0.00000710,0.00000918,-0.00000357,-0.00
 000648,-0.00000048,0.00000396,-0.00000615,0.00000490,-0.00000688,-0.00
 000228,-0.00000090,-0.00000367,-0.00000010,-0.00000626,-0.00000361,-0.
 00000210,0.00000311,-0.00000116,-0.00000017,-0.00000619,-0.00000676,-0
 .00000110,0.00000170,-0.00000267,-0.00000145,-0.00000722,-0.00000614,-
 0.00000458,-0.00000514,-0.00001160,-0.00000296\\\@


 CHINESE FORTUNE COOKIE OF JAN 1 1967 SAY....
 ALL THINGS ARE DIFFICULT BEFORE THEY ARE EASY.
 WE LEARN SO LITTLE AND FORGET SO MUCH.
 YOU WILL OVERCOME OBSTACLES TO ACHIEVE SUCCESS.
 AH SO.
 Job cpu time:       0 days  2 hours 38 minutes 52.8 seconds.
 Elapsed time:       0 days  0 hours 19 minutes 51.9 seconds.
 File lengths (MBytes):  RWF=    633 Int=      0 D2E=      0 Chk=     12 Scr=      1
 Normal termination of Gaussian 16 at Mon Feb 22 23:25:12 2021.
