 Entering Gaussian System, Link 0=g16
 Input=305_trj10_frag1.com
 Output=305_trj10_frag1.log
 Initial command:
 /share/apps/g16/l1.exe "/scratch/Gau-24051.inp" -scrdir="/scratch/"
 Entering Link 1 = /share/apps/g16/l1.exe PID=     24056.
  
 Copyright (c) 1988,1990,1992,1993,1995,1998,2003,2009,2016,
            Gaussian, Inc.  All Rights Reserved.
  
 This is part of the Gaussian(R) 16 program.  It is based on
 the Gaussian(R) 09 system (copyright 2009, Gaussian, Inc.),
 the Gaussian(R) 03 system (copyright 2003, Gaussian, Inc.),
 the Gaussian(R) 98 system (copyright 1998, Gaussian, Inc.),
 the Gaussian(R) 94 system (copyright 1995, Gaussian, Inc.),
 the Gaussian 92(TM) system (copyright 1992, Gaussian, Inc.),
 the Gaussian 90(TM) system (copyright 1990, Gaussian, Inc.),
 the Gaussian 88(TM) system (copyright 1988, Gaussian, Inc.),
 the Gaussian 86(TM) system (copyright 1986, Carnegie Mellon
 University), and the Gaussian 82(TM) system (copyright 1983,
 Carnegie Mellon University). Gaussian is a federally registered
 trademark of Gaussian, Inc.
  
 This software contains proprietary and confidential information,
 including trade secrets, belonging to Gaussian, Inc.
  
 This software is provided under written license and may be
 used, copied, transmitted, or stored only in accord with that
 written license.
  
 The following legend is applicable only to US Government
 contracts under FAR:
  
                    RESTRICTED RIGHTS LEGEND
  
 Use, reproduction and disclosure by the US Government is
 subject to restrictions as set forth in subparagraphs (a)
 and (c) of the Commercial Computer Software - Restricted
 Rights clause in FAR 52.227-19.
  
 Gaussian, Inc.
 340 Quinnipiac St., Bldg. 40, Wallingford CT 06492
  
  
 ---------------------------------------------------------------
 Warning -- This program may not be used in any manner that
 competes with the business of Gaussian, Inc. or will provide
 assistance to any competitor of Gaussian, Inc.  The licensee
 of this program is prohibited from giving any competitor of
 Gaussian, Inc. access to this program.  By using this program,
 the user acknowledges that Gaussian, Inc. is engaged in the
 business of creating and licensing software in the field of
 computational chemistry and represents and warrants to the
 licensee that it is not a competitor of Gaussian, Inc. and that
 it will not use this program in any manner prohibited above.
 ---------------------------------------------------------------
  

 Cite this work as:
 Gaussian 16, Revision A.03,
 M. J. Frisch, G. W. Trucks, H. B. Schlegel, G. E. Scuseria, 
 M. A. Robb, J. R. Cheeseman, G. Scalmani, V. Barone, 
 G. A. Petersson, H. Nakatsuji, X. Li, M. Caricato, A. V. Marenich, 
 J. Bloino, B. G. Janesko, R. Gomperts, B. Mennucci, H. P. Hratchian, 
 J. V. Ortiz, A. F. Izmaylov, J. L. Sonnenberg, D. Williams-Young, 
 F. Ding, F. Lipparini, F. Egidi, J. Goings, B. Peng, A. Petrone, 
 T. Henderson, D. Ranasinghe, V. G. Zakrzewski, J. Gao, N. Rega, 
 G. Zheng, W. Liang, M. Hada, M. Ehara, K. Toyota, R. Fukuda, 
 J. Hasegawa, M. Ishida, T. Nakajima, Y. Honda, O. Kitao, H. Nakai, 
 T. Vreven, K. Throssell, J. A. Montgomery, Jr., J. E. Peralta, 
 F. Ogliaro, M. J. Bearpark, J. J. Heyd, E. N. Brothers, K. N. Kudin, 
 V. N. Staroverov, T. A. Keith, R. Kobayashi, J. Normand, 
 K. Raghavachari, A. P. Rendell, J. C. Burant, S. S. Iyengar, 
 J. Tomasi, M. Cossi, J. M. Millam, M. Klene, C. Adamo, R. Cammi, 
 J. W. Ochterski, R. L. Martin, K. Morokuma, O. Farkas, 
 J. B. Foresman, and D. J. Fox, Gaussian, Inc., Wallingford CT, 2016.
 
 ******************************************
 Gaussian 16:  ES64L-G16RevA.03 25-Dec-2016
                23-Feb-2021 
 ******************************************
 %nprocshared=8
 Will use up to    8 processors via shared memory.
 %mem=4000MB
 %chk=305_trj10_frag1.chk
 -----------------------------------------------------
 # opt freq em=gd3bj int=ultrafine pbe1pbe scf=xqc SVP
 -----------------------------------------------------
 1/18=20,19=15,26=4,38=1/1,3;
 2/9=110,12=2,17=6,18=5,40=1/2;
 3/5=18,7=101,11=2,25=1,30=1,71=1,74=-13,75=-5,124=41/1,2,3;
 4//1;
 5/5=2,8=3,13=1,38=5/2,8;
 6/7=2,8=2,9=2,10=2,28=1/1;
 7//1,2,3,16;
 1/18=20,19=15,26=4/3(2);
 2/9=110/2;
 99//99;
 2/9=110/2;
 3/5=18,7=101,11=2,25=1,30=1,71=1,74=-13,75=-5,124=41/1,2,3;
 4/5=5,16=3,69=1/1;
 5/5=2,8=3,13=1,38=5/2,8;
 7//1,2,3,16;
 1/18=20,19=15,26=4/3(-5);
 2/9=110/2;
 6/7=2,8=2,9=2,10=2,19=2,28=1/1;
 99/9=1/99;
 -------
 MODEL 1
 -------
 Symbolic Z-matrix:
 Charge =  0 Multiplicity = 2
 C                    -1.753     2.164     1.414 
 C                    -0.967     4.952     0.449 
 C                     0.998     2.609    -0.522 
 C                     0.876     1.953     3.453 
 O                     1.369     1.484     4.304 
 O                     0.978     2.155     2.13 
 S                    -0.118     3.242     0.821 
 H                    -2.449     1.802     0.525 
 H                    -2.445     2.837     1.624 
 H                    -1.828     1.259     1.967 
 H                    -0.163     4.984    -0.382 
 H                    -1.544     5.03      1.352 
 H                    -1.877     4.105    -0.035 
 H                     1.918     2.104    -0.54 
 H                     1.311     3.424    -1.091 
 H                     0.272     2.023    -1.087 
 
 Add virtual bond connecting atoms H13        and C2         Dist= 2.52D+00.
 Add virtual bond connecting atoms S7         and O6         Dist= 3.82D+00.

 GradGradGradGradGradGradGradGradGradGradGradGradGradGradGradGradGradGrad
 Berny optimization.
 Initialization pass.
                           ----------------------------
                           !    Initial Parameters    !
                           ! (Angstroms and Degrees)  !
 --------------------------                            --------------------------
 ! Name  Definition              Value          Derivative Info.                !
 --------------------------------------------------------------------------------
 ! R1    R(1,7)                  2.0462         estimate D2E/DX2                !
 ! R2    R(1,8)                  1.1857         estimate D2E/DX2                !
 ! R3    R(1,9)                  0.9879         estimate D2E/DX2                !
 ! R4    R(1,10)                 1.0632         estimate D2E/DX2                !
 ! R5    R(2,7)                  1.9451         estimate D2E/DX2                !
 ! R6    R(2,11)                 1.1567         estimate D2E/DX2                !
 ! R7    R(2,12)                 1.0744         estimate D2E/DX2                !
 ! R8    R(2,13)                 1.3341         estimate D2E/DX2                !
 ! R9    R(3,7)                  1.8574         estimate D2E/DX2                !
 ! R10   R(3,14)                 1.0496         estimate D2E/DX2                !
 ! R11   R(3,15)                 1.0421         estimate D2E/DX2                !
 ! R12   R(3,16)                 1.0907         estimate D2E/DX2                !
 ! R13   R(4,5)                  1.0896         estimate D2E/DX2                !
 ! R14   R(4,6)                  1.3422         estimate D2E/DX2                !
 ! R15   R(6,7)                  2.0239         estimate D2E/DX2                !
 ! A1    A(7,1,8)              114.3686         estimate D2E/DX2                !
 ! A2    A(7,1,9)              105.2138         estimate D2E/DX2                !
 ! A3    A(7,1,10)             130.9592         estimate D2E/DX2                !
 ! A4    A(8,1,9)               87.489          estimate D2E/DX2                !
 ! A5    A(8,1,10)              95.0883         estimate D2E/DX2                !
 ! A6    A(9,1,10)             114.8282         estimate D2E/DX2                !
 ! A7    A(7,2,11)              81.8555         estimate D2E/DX2                !
 ! A8    A(7,2,12)              97.9027         estimate D2E/DX2                !
 ! A9    A(7,2,13)              78.9863         estimate D2E/DX2                !
 ! A10   A(11,2,13)            103.3587         estimate D2E/DX2                !
 ! A11   A(12,2,13)             89.1225         estimate D2E/DX2                !
 ! A12   A(7,3,14)             134.6688         estimate D2E/DX2                !
 ! A13   A(7,3,15)             107.9833         estimate D2E/DX2                !
 ! A14   A(7,3,16)              99.0744         estimate D2E/DX2                !
 ! A15   A(14,3,15)             95.9493         estimate D2E/DX2                !
 ! A16   A(14,3,16)            108.4232         estimate D2E/DX2                !
 ! A17   A(15,3,16)            109.71           estimate D2E/DX2                !
 ! A18   A(5,4,6)              143.1531         estimate D2E/DX2                !
 ! A19   A(4,6,7)              132.6238         estimate D2E/DX2                !
 ! A20   A(1,7,2)               99.777          estimate D2E/DX2                !
 ! A21   A(1,7,3)              120.671          estimate D2E/DX2                !
 ! A22   A(1,7,6)               87.8404         estimate D2E/DX2                !
 ! A23   A(2,7,3)              115.0617         estimate D2E/DX2                !
 ! A24   A(2,7,6)              146.3288         estimate D2E/DX2                !
 ! A25   A(3,7,6)               87.664          estimate D2E/DX2                !
 ! A26   L(11,2,12,7,-1)       179.7582         estimate D2E/DX2                !
 ! A27   L(11,2,12,7,-2)       167.0466         estimate D2E/DX2                !
 ! D1    D(8,1,7,2)             77.0432         estimate D2E/DX2                !
 ! D2    D(8,1,7,3)            -49.966          estimate D2E/DX2                !
 ! D3    D(8,1,7,6)           -135.9643         estimate D2E/DX2                !
 ! D4    D(9,1,7,2)            -17.1627         estimate D2E/DX2                !
 ! D5    D(9,1,7,3)           -144.1718         estimate D2E/DX2                !
 ! D6    D(9,1,7,6)            129.8299         estimate D2E/DX2                !
 ! D7    D(10,1,7,2)          -161.4825         estimate D2E/DX2                !
 ! D8    D(10,1,7,3)            71.5083         estimate D2E/DX2                !
 ! D9    D(10,1,7,6)           -14.49           estimate D2E/DX2                !
 ! D10   D(11,2,7,1)          -145.3193         estimate D2E/DX2                !
 ! D11   D(11,2,7,3)           -14.6266         estimate D2E/DX2                !
 ! D12   D(11,2,7,6)           113.7461         estimate D2E/DX2                !
 ! D13   D(12,2,7,1)            47.6341         estimate D2E/DX2                !
 ! D14   D(12,2,7,3)           178.3269         estimate D2E/DX2                !
 ! D15   D(12,2,7,6)           -53.3005         estimate D2E/DX2                !
 ! D16   D(13,2,7,1)           -39.9147         estimate D2E/DX2                !
 ! D17   D(13,2,7,3)            90.778          estimate D2E/DX2                !
 ! D18   D(13,2,7,6)          -140.8493         estimate D2E/DX2                !
 ! D19   D(14,3,7,1)           -98.7681         estimate D2E/DX2                !
 ! D20   D(14,3,7,2)           141.5433         estimate D2E/DX2                !
 ! D21   D(14,3,7,6)           -12.6697         estimate D2E/DX2                !
 ! D22   D(15,3,7,1)           142.9315         estimate D2E/DX2                !
 ! D23   D(15,3,7,2)            23.243          estimate D2E/DX2                !
 ! D24   D(15,3,7,6)          -130.97           estimate D2E/DX2                !
 ! D25   D(16,3,7,1)            28.6689         estimate D2E/DX2                !
 ! D26   D(16,3,7,2)           -91.0196         estimate D2E/DX2                !
 ! D27   D(16,3,7,6)           114.7674         estimate D2E/DX2                !
 ! D28   D(5,4,6,7)           -174.7851         estimate D2E/DX2                !
 ! D29   D(4,6,7,1)            -57.0301         estimate D2E/DX2                !
 ! D30   D(4,6,7,2)             47.4415         estimate D2E/DX2                !
 ! D31   D(4,6,7,3)           -177.856          estimate D2E/DX2                !
 --------------------------------------------------------------------------------
 Trust Radius=3.00D-01 FncErr=1.00D-07 GrdErr=1.00D-06 EigMax=2.50D+02 EigMin=1.00D-04
 Number of steps in this run=     83 maximum allowed number of steps=    100.
 GradGradGradGradGradGradGradGradGradGradGradGradGradGradGradGradGradGrad

                          Input orientation:                          
 ---------------------------------------------------------------------
 Center     Atomic      Atomic             Coordinates (Angstroms)
 Number     Number       Type             X           Y           Z
 ---------------------------------------------------------------------
      1          6           0       -1.753000    2.164000    1.414000
      2          6           0       -0.967000    4.952000    0.449000
      3          6           0        0.998000    2.609000   -0.522000
      4          6           0        0.876000    1.953000    3.453000
      5          8           0        1.369000    1.484000    4.304000
      6          8           0        0.978000    2.155000    2.130000
      7         16           0       -0.118000    3.242000    0.821000
      8          1           0       -2.449000    1.802000    0.525000
      9          1           0       -2.445000    2.837000    1.624000
     10          1           0       -1.828000    1.259000    1.967000
     11          1           0       -0.163000    4.984000   -0.382000
     12          1           0       -1.544000    5.030000    1.352000
     13          1           0       -1.877000    4.105000   -0.035000
     14          1           0        1.918000    2.104000   -0.540000
     15          1           0        1.311000    3.424000   -1.091000
     16          1           0        0.272000    2.023000   -1.087000
 ---------------------------------------------------------------------
                    Distance matrix (angstroms):
                    1          2          3          4          5
     1  C    0.000000
     2  C    3.053189   0.000000
     3  C    3.393247   3.208382   0.000000
     4  C    3.333719   4.627598   4.030613   0.000000
     5  O    4.308292   5.687262   4.969260   1.089592   0.000000
     6  O    2.823313   3.798947   2.690654   1.342213   2.308549
     7  S    2.046206   1.945067   1.857362   3.094670   4.175287
     8  H    1.185656   3.482040   3.691784   4.433014   5.381365
     9  H    0.987873   2.835196   4.063441   3.893037   4.853824
    10  H    1.063230   4.084592   4.000487   3.162507   3.966485
    11  H    3.702177   1.156720   2.647290   4.997370   6.046124
    12  H    2.874279   1.074440   3.979307   4.442807   5.456555
    13  H    2.425378   1.334078   3.277318   4.937232   6.019392
    14  H    4.159081   4.172823   1.049642   4.129481   4.914279
    15  H    4.153399   3.145738   1.042092   4.795936   5.733497
    16  H    3.221103   3.531778   1.090732   4.580537   5.527822
                    6          7          8          9         10
     6  O    0.000000
     7  S    2.023923   0.000000
     8  H    3.800653   2.755862   0.000000
     9  H    3.526768   2.494747   1.509650   0.000000
    10  H    2.950088   2.858270   1.661281   1.728705   0.000000
    11  H    3.951616   2.117498   4.021638   3.720372   4.708041
    12  H    3.902742   2.347846   3.452961   2.386427   3.831360
    13  H    4.079308   2.138127   2.438154   2.163961   3.479960
    14  H    2.831095   2.700493   4.505121   4.925033   4.586021
    15  H    3.477944   2.393932   4.402265   4.671545   4.887935
    16  H    3.296202   2.297504   3.170367   3.923545   3.784258
                   11         12         13         14         15
    11  H    0.000000
    12  H    2.217213   0.000000
    13  H    1.957255   1.700083   0.000000
    14  H    3.556673   4.911882   4.319844   0.000000
    15  H    2.260300   4.086381   3.426695   1.553850   0.000000
    16  H    3.074699   4.276520   3.171692   1.736400   1.744230
                   16
    16  H    0.000000
 Stoichiometry    C4H9O2S(2)
 Framework group  C1[X(C4H9O2S)]
 Deg. of freedom    42
 Full point group                 C1      NOp   1
 Largest Abelian subgroup         C1      NOp   1
 Largest concise Abelian subgroup C1      NOp   1
                         Standard orientation:                         
 ---------------------------------------------------------------------
 Center     Atomic      Atomic             Coordinates (Angstroms)
 Number     Number       Type             X           Y           Z
 ---------------------------------------------------------------------
      1          6           0        0.467974   -1.520663    1.077990
      2          6           0        2.236907   -0.649100   -1.252937
      3          6           0        1.185138    1.759432    0.587300
      4          6           0       -2.257690   -0.153435   -0.269276
      5          8           0       -3.343447   -0.075636   -0.317127
      6          8           0       -1.142606    0.538664    0.012016
      7         16           0        0.824742    0.087204   -0.136275
      8          1           0        1.275542   -1.677636    1.931791
      9          1           0        0.873536   -2.291964    0.612687
     10          1           0       -0.366442   -1.758362    1.692569
     11          1           0        2.613494    0.443832   -1.211905
     12          1           0        1.767807   -1.587528   -1.484713
     13          1           0        2.575986   -1.137002   -0.058474
     14          1           0        0.617443    2.624014    0.766102
     15          1           0        1.900631    2.222170   -0.012615
     16          1           0        1.640579    1.445572    1.527387
 ---------------------------------------------------------------------
 Rotational constants (GHZ):           3.1975256           1.1478554           1.0286150
 Standard basis: SVP (5D, 7F)
 There are   154 symmetry adapted cartesian basis functions of A   symmetry.
 There are   147 symmetry adapted basis functions of A   symmetry.
   147 basis functions,   250 primitive gaussians,   154 cartesian basis functions
    33 alpha electrons       32 beta electrons
       nuclear repulsion energy       379.8137249211 Hartrees.
 NAtoms=   16 NActive=   16 NUniq=   16 SFac= 1.00D+00 NAtFMM=   60 NAOKFM=F Big=F
 Integral buffers will be    131072 words long.
 Raffenetti 2 integral format.
 Two-electron integral symmetry is turned on.
 Nuclear repulsion after empirical dispersion term =      379.8017703433 Hartrees.
 One-electron integrals computed using PRISM.
 NBasis=   147 RedAO= T EigKep=  6.27D-03  NBF=   147
 NBsUse=   147 1.00D-06 EigRej= -1.00D+00 NBFU=   147
 ExpMin= 1.22D-01 ExpMax= 9.18D+03 ExpMxC= 1.38D+03 IAcc=3 IRadAn=         5 AccDes= 0.00D+00
 Harris functional with IExCor= 1009 and IRadAn=       5 diagonalized for initial guess.
 HarFok:  IExCor= 1009 AccDes= 0.00D+00 IRadAn=         5 IDoV= 1 UseB2=F ITyADJ=14
 ICtDFT=  3500011 ScaDFX=  1.000000  1.000000  1.000000  1.000000
 FoFCou: FMM=F IPFlag=           0 FMFlag=      100000 FMFlg1=           0
         NFxFlg=           0 DoJE=T BraDBF=F KetDBF=T FulRan=T
         wScrn=  0.000000 ICntrl=       500 IOpCl=  0 I1Cent=   200000004 NGrid=           0
         NMat0=    1 NMatS0=      1 NMatT0=    0 NMatD0=    1 NMtDS0=    0 NMtDT0=    0
 Petite list used in FoFCou.
 Initial guess <Sx>= 0.0000 <Sy>= 0.0000 <Sz>= 0.5000 <S**2>= 0.7500 S= 0.5000
 Requested convergence on RMS density matrix=1.00D-08 within  32 cycles.
 Requested convergence on MAX density matrix=1.00D-06.
 Requested convergence on             energy=1.00D-06.
 No special actions if energy rises.
 Integral accuracy reduced to 1.0D-05 until final iterations.
 Failed to achieve initial convergence to 1.0D-08 in 10 cycles.
 Switch to full accuracy anyway.
 SCF Done:  E(UPBE1PBE) =  -705.241612603     A.U. after   24 cycles
            NFock= 24  Conv=0.45D-08     -V/T= 2.0042
 <Sx>= 0.0000 <Sy>= 0.0000 <Sz>= 0.5000 <S**2>= 0.7691 S= 0.5095
 <L.S>=  0.00000000000    
 Annihilation of the first spin contaminant:
 S**2 before annihilation     0.7691,   after     0.7501
 QCSCF skips out because SCF is already converged.

 **********************************************************************

            Population analysis using the SCF density.

 **********************************************************************

 Orbital symmetries:
 Alpha Orbitals:
       Occupied  (A) (A) (A) (A) (A) (A) (A) (A) (A) (A) (A) (A)
                 (A) (A) (A) (A) (A) (A) (A) (A) (A) (A) (A) (A)
                 (A) (A) (A) (A) (A) (A) (A) (A) (A)
       Virtual   (A) (A) (A) (A) (A) (A) (A) (A) (A) (A) (A) (A)
                 (A) (A) (A) (A) (A) (A) (A) (A) (A) (A) (A) (A)
                 (A) (A) (A) (A) (A) (A) (A) (A) (A) (A) (A) (A)
                 (A) (A) (A) (A) (A) (A) (A) (A) (A) (A) (A) (A)
                 (A) (A) (A) (A) (A) (A) (A) (A) (A) (A) (A) (A)
                 (A) (A) (A) (A) (A) (A) (A) (A) (A) (A) (A) (A)
                 (A) (A) (A) (A) (A) (A) (A) (A) (A) (A) (A) (A)
                 (A) (A) (A) (A) (A) (A) (A) (A) (A) (A) (A) (A)
                 (A) (A) (A) (A) (A) (A) (A) (A) (A) (A) (A) (A)
                 (A) (A) (A) (A) (A) (A)
 Beta  Orbitals:
       Occupied  (A) (A) (A) (A) (A) (A) (A) (A) (A) (A) (A) (A)
                 (A) (A) (A) (A) (A) (A) (A) (A) (A) (A) (A) (A)
                 (A) (A) (A) (A) (A) (A) (A) (A)
       Virtual   (A) (A) (A) (A) (A) (A) (A) (A) (A) (A) (A) (A)
                 (A) (A) (A) (A) (A) (A) (A) (A) (A) (A) (A) (A)
                 (A) (A) (A) (A) (A) (A) (A) (A) (A) (A) (A) (A)
                 (A) (A) (A) (A) (A) (A) (A) (A) (A) (A) (A) (A)
                 (A) (A) (A) (A) (A) (A) (A) (A) (A) (A) (A) (A)
                 (A) (A) (A) (A) (A) (A) (A) (A) (A) (A) (A) (A)
                 (A) (A) (A) (A) (A) (A) (A) (A) (A) (A) (A) (A)
                 (A) (A) (A) (A) (A) (A) (A) (A) (A) (A) (A) (A)
                 (A) (A) (A) (A) (A) (A) (A) (A) (A) (A) (A) (A)
                 (A) (A) (A) (A) (A) (A) (A)
 The electronic state is 2-A.
 Alpha  occ. eigenvalues --  -89.06522 -19.23026 -19.19077 -10.33759 -10.29445
 Alpha  occ. eigenvalues --  -10.27415 -10.26088  -8.05809  -5.99947  -5.99829
 Alpha  occ. eigenvalues --   -5.98995  -1.14763  -0.98852  -0.85066  -0.75518
 Alpha  occ. eigenvalues --   -0.72722  -0.64926  -0.53942  -0.51985  -0.49849
 Alpha  occ. eigenvalues --   -0.47798  -0.47171  -0.46793  -0.45584  -0.44616
 Alpha  occ. eigenvalues --   -0.40839  -0.39736  -0.36979  -0.36345  -0.32954
 Alpha  occ. eigenvalues --   -0.29680  -0.18781  -0.12181
 Alpha virt. eigenvalues --   -0.06467   0.00288   0.01744   0.04095   0.05684
 Alpha virt. eigenvalues --    0.07776   0.09069   0.09755   0.12552   0.14049
 Alpha virt. eigenvalues --    0.14485   0.16062   0.19357   0.25103   0.34964
 Alpha virt. eigenvalues --    0.36181   0.37331   0.38343   0.42155   0.43403
 Alpha virt. eigenvalues --    0.44320   0.47407   0.50123   0.51684   0.53648
 Alpha virt. eigenvalues --    0.54100   0.58298   0.59591   0.62575   0.63128
 Alpha virt. eigenvalues --    0.64110   0.65200   0.66450   0.68215   0.68675
 Alpha virt. eigenvalues --    0.69380   0.71494   0.72168   0.72951   0.76053
 Alpha virt. eigenvalues --    0.76858   0.78093   0.81736   0.83418   0.86371
 Alpha virt. eigenvalues --    0.94344   0.96792   1.01135   1.02000   1.04847
 Alpha virt. eigenvalues --    1.05075   1.07208   1.12188   1.17112   1.18315
 Alpha virt. eigenvalues --    1.21343   1.23790   1.27230   1.33022   1.37819
 Alpha virt. eigenvalues --    1.43858   1.46103   1.49918   1.55544   1.56729
 Alpha virt. eigenvalues --    1.56867   1.60176   1.62469   1.66547   1.68326
 Alpha virt. eigenvalues --    1.70755   1.71274   1.73462   1.74331   1.75726
 Alpha virt. eigenvalues --    1.77605   1.82190   1.84228   1.88429   1.90640
 Alpha virt. eigenvalues --    1.93723   1.95607   1.96224   1.99588   2.04420
 Alpha virt. eigenvalues --    2.11257   2.27428   2.29231   2.32726   2.34166
 Alpha virt. eigenvalues --    2.37127   2.38697   2.41728   2.44603   2.46251
 Alpha virt. eigenvalues --    2.51460   2.53963   2.62632   2.64001   2.66756
 Alpha virt. eigenvalues --    2.69588   2.72932   2.76094   2.90769   2.93480
 Alpha virt. eigenvalues --    3.01745   3.05508   3.15252   3.18099   3.25891
 Alpha virt. eigenvalues --    3.39255   3.42462   3.61415   3.84108
  Beta  occ. eigenvalues --  -89.06378 -19.22624 -19.18845 -10.33153 -10.29412
  Beta  occ. eigenvalues --  -10.27296 -10.25661  -8.05607  -5.99813  -5.99751
  Beta  occ. eigenvalues --   -5.98664  -1.13937  -0.98088  -0.84342  -0.75123
  Beta  occ. eigenvalues --   -0.72148  -0.64373  -0.53272  -0.51424  -0.48757
  Beta  occ. eigenvalues --   -0.47429  -0.46357  -0.45240  -0.44679  -0.43921
  Beta  occ. eigenvalues --   -0.40188  -0.39283  -0.36494  -0.35733  -0.32368
  Beta  occ. eigenvalues --   -0.29273  -0.18260
  Beta virt. eigenvalues --   -0.04243  -0.00310   0.01121   0.01962   0.04295
  Beta virt. eigenvalues --    0.06048   0.08969   0.09326   0.10033   0.12855
  Beta virt. eigenvalues --    0.14287   0.14930   0.16302   0.19542   0.25800
  Beta virt. eigenvalues --    0.35402   0.37139   0.38240   0.38538   0.42514
  Beta virt. eigenvalues --    0.43751   0.45212   0.48517   0.50747   0.52582
  Beta virt. eigenvalues --    0.54215   0.54703   0.58500   0.60084   0.62815
  Beta virt. eigenvalues --    0.63728   0.64366   0.65626   0.66784   0.68572
  Beta virt. eigenvalues --    0.68871   0.69831   0.71824   0.72755   0.73587
  Beta virt. eigenvalues --    0.76380   0.77279   0.78495   0.82530   0.83934
  Beta virt. eigenvalues --    0.86714   0.95480   0.97349   1.01423   1.02455
  Beta virt. eigenvalues --    1.05170   1.05998   1.07430   1.12716   1.17503
  Beta virt. eigenvalues --    1.18468   1.21776   1.24119   1.27595   1.33294
  Beta virt. eigenvalues --    1.38227   1.44154   1.46682   1.50417   1.55776
  Beta virt. eigenvalues --    1.56996   1.57351   1.60346   1.64087   1.67578
  Beta virt. eigenvalues --    1.68931   1.71113   1.72571   1.74360   1.74643
  Beta virt. eigenvalues --    1.76120   1.77938   1.82367   1.84520   1.88653
  Beta virt. eigenvalues --    1.90956   1.94598   1.96003   1.96629   1.99845
  Beta virt. eigenvalues --    2.04725   2.11807   2.28167   2.29383   2.33031
  Beta virt. eigenvalues --    2.34403   2.37751   2.39632   2.42015   2.44826
  Beta virt. eigenvalues --    2.46527   2.51760   2.54113   2.63235   2.64782
  Beta virt. eigenvalues --    2.67577   2.69885   2.73131   2.76423   2.91194
  Beta virt. eigenvalues --    2.93724   3.02314   3.05700   3.15802   3.18838
  Beta virt. eigenvalues --    3.27294   3.39282   3.43030   3.62368   3.84992
          Condensed to atoms (all electrons):
               1          2          3          4          5          6
     1  C    5.020930  -0.010364   0.026456   0.037363  -0.000851  -0.040300
     2  C   -0.010364   5.029375   0.001528   0.002433  -0.000000   0.007455
     3  C    0.026456   0.001528   4.817177   0.010059  -0.000037   0.005494
     4  C    0.037363   0.002433   0.010059   4.918795   0.612101   0.324847
     5  O   -0.000851  -0.000000  -0.000037   0.612101   7.511732  -0.043106
     6  O   -0.040300   0.007455   0.005494   0.324847  -0.043106   8.384868
     7  S   -0.031054   0.043040   0.045952  -0.054296  -0.000389  -0.220484
     8  H    0.349831  -0.002484  -0.001991   0.000375  -0.000003   0.000322
     9  H    0.380062   0.002166   0.000889  -0.001363   0.000015   0.002523
    10  H    0.410029   0.001435   0.000116  -0.001017   0.000039  -0.000285
    11  H    0.006160   0.369846   0.006430   0.000078  -0.000000  -0.000313
    12  H    0.005437   0.414130   0.002310   0.000295  -0.000002   0.000280
    13  H   -0.003730   0.329050  -0.000595   0.000148  -0.000001  -0.000755
    14  H   -0.001484   0.000934   0.385037  -0.000909   0.000001   0.001351
    15  H    0.001044  -0.004269   0.394224  -0.000107   0.000000   0.001057
    16  H    0.003382  -0.000349   0.407703   0.000244  -0.000003  -0.001615
               7          8          9         10         11         12
     1  C   -0.031054   0.349831   0.380062   0.410029   0.006160   0.005437
     2  C    0.043040  -0.002484   0.002166   0.001435   0.369846   0.414130
     3  C    0.045952  -0.001991   0.000889   0.000116   0.006430   0.002310
     4  C   -0.054296   0.000375  -0.001363  -0.001017   0.000078   0.000295
     5  O   -0.000389  -0.000003   0.000015   0.000039  -0.000000  -0.000002
     6  O   -0.220484   0.000322   0.002523  -0.000285  -0.000313   0.000280
     7  S   16.405850  -0.022128  -0.012981  -0.003068  -0.048528  -0.036463
     8  H   -0.022128   0.685620  -0.037809  -0.030264  -0.000100  -0.001007
     9  H   -0.012981  -0.037809   0.650912  -0.010174  -0.000213   0.002828
    10  H   -0.003068  -0.030264  -0.010174   0.546949  -0.000130  -0.000196
    11  H   -0.048528  -0.000100  -0.000213  -0.000130   0.548616  -0.008308
    12  H   -0.036463  -0.001007   0.002828  -0.000196  -0.008308   0.538230
    13  H   -0.062608   0.011116  -0.003134   0.000336  -0.018191  -0.048921
    14  H    0.007555  -0.000154   0.000011   0.000057  -0.001006  -0.000006
    15  H   -0.021594   0.000074  -0.000060  -0.000024   0.009594   0.000016
    16  H   -0.065280   0.003295  -0.000479  -0.000175   0.000035  -0.000196
              13         14         15         16
     1  C   -0.003730  -0.001484   0.001044   0.003382
     2  C    0.329050   0.000934  -0.004269  -0.000349
     3  C   -0.000595   0.385037   0.394224   0.407703
     4  C    0.000148  -0.000909  -0.000107   0.000244
     5  O   -0.000001   0.000001   0.000000  -0.000003
     6  O   -0.000755   0.001351   0.001057  -0.001615
     7  S   -0.062608   0.007555  -0.021594  -0.065280
     8  H    0.011116  -0.000154   0.000074   0.003295
     9  H   -0.003134   0.000011  -0.000060  -0.000479
    10  H    0.000336   0.000057  -0.000024  -0.000175
    11  H   -0.018191  -0.001006   0.009594   0.000035
    12  H   -0.048921  -0.000006   0.000016  -0.000196
    13  H    0.742509  -0.000428  -0.000298   0.003391
    14  H   -0.000428   0.567525  -0.018518  -0.029114
    15  H   -0.000298  -0.018518   0.591358  -0.013442
    16  H    0.003391  -0.029114  -0.013442   0.609906
          Atomic-Atomic Spin Densities.
               1          2          3          4          5          6
     1  C    0.477376   0.026686   0.041159   0.040067  -0.000687  -0.027522
     2  C    0.026686   0.046465   0.013159   0.002213  -0.000006  -0.001932
     3  C    0.041159   0.013159   0.217603   0.009449  -0.000031   0.006996
     4  C    0.040067   0.002213   0.009449   0.709098  -0.134043  -0.153230
     5  O   -0.000687  -0.000006  -0.000031  -0.134043   0.211056   0.009569
     6  O   -0.027522  -0.001932   0.006996  -0.153230   0.009569   0.160502
     7  S   -0.329758  -0.062292  -0.205280  -0.042314   0.000509   0.032012
     8  H    0.007736   0.000651   0.000668   0.000110  -0.000001  -0.000028
     9  H   -0.015058  -0.002511  -0.000947  -0.001671   0.000023   0.000559
    10  H   -0.001953  -0.000078  -0.000199  -0.001337   0.000031   0.000510
    11  H    0.001818   0.000125   0.004492   0.000100  -0.000000  -0.000011
    12  H    0.000493  -0.000697   0.000121   0.000177  -0.000001   0.000007
    13  H    0.013875   0.006372   0.003411   0.000133  -0.000000  -0.000055
    14  H   -0.001837  -0.000548  -0.022303  -0.000794  -0.000001  -0.001809
    15  H   -0.000154   0.000043  -0.001348  -0.000027   0.000000   0.000007
    16  H    0.006438   0.001526   0.019037   0.000292  -0.000001   0.000298
               7          8          9         10         11         12
     1  C   -0.329758   0.007736  -0.015058  -0.001953   0.001818   0.000493
     2  C   -0.062292   0.000651  -0.002511  -0.000078   0.000125  -0.000697
     3  C   -0.205280   0.000668  -0.000947  -0.000199   0.004492   0.000121
     4  C   -0.042314   0.000110  -0.001671  -0.001337   0.000100   0.000177
     5  O    0.000509  -0.000001   0.000023   0.000031  -0.000000  -0.000001
     6  O    0.032012  -0.000028   0.000559   0.000510  -0.000011   0.000007
     7  S    0.745234  -0.004106   0.017645   0.003071  -0.008482   0.000027
     8  H   -0.004106  -0.017990  -0.000255   0.000318   0.000033   0.000009
     9  H    0.017645  -0.000255  -0.001202   0.001220  -0.000105  -0.000037
    10  H    0.003071   0.000318   0.001220  -0.004056  -0.000003   0.000011
    11  H   -0.008482   0.000033  -0.000105  -0.000003  -0.000372  -0.000361
    12  H    0.000027   0.000009  -0.000037   0.000011  -0.000361  -0.001955
    13  H   -0.027043  -0.000080  -0.002239  -0.000078   0.001916  -0.000519
    14  H    0.013653  -0.000021   0.000027   0.000012  -0.000283  -0.000000
    15  H    0.002557  -0.000005   0.000009   0.000001  -0.000361   0.000002
    16  H   -0.026582   0.000052  -0.000144  -0.000058   0.000424   0.000007
              13         14         15         16
     1  C    0.013875  -0.001837  -0.000154   0.006438
     2  C    0.006372  -0.000548   0.000043   0.001526
     3  C    0.003411  -0.022303  -0.001348   0.019037
     4  C    0.000133  -0.000794  -0.000027   0.000292
     5  O   -0.000000  -0.000001   0.000000  -0.000001
     6  O   -0.000055  -0.001809   0.000007   0.000298
     7  S   -0.027043   0.013653   0.002557  -0.026582
     8  H   -0.000080  -0.000021  -0.000005   0.000052
     9  H   -0.002239   0.000027   0.000009  -0.000144
    10  H   -0.000078   0.000012   0.000001  -0.000058
    11  H    0.001916  -0.000283  -0.000361   0.000424
    12  H   -0.000519  -0.000000   0.000002   0.000007
    13  H    0.014795  -0.000108  -0.000091   0.000429
    14  H   -0.000108   0.029820   0.001364  -0.006276
    15  H   -0.000091   0.001364  -0.005758  -0.000674
    16  H    0.000429  -0.006276  -0.000674   0.008818
 Mulliken charges and spin densities:
               1          2
     1  C   -0.152911   0.238681
     2  C   -0.183924   0.029175
     3  C   -0.100751   0.085987
     4  C    0.150954   0.428222
     5  O   -0.079497   0.086416
     6  O   -0.421338   0.025874
     7  S    0.076475   0.108850
     8  H    0.045307  -0.012909
     9  H    0.026807  -0.004685
    10  H    0.086373  -0.002587
    11  H    0.136029  -0.001070
    12  H    0.131574  -0.002715
    13  H    0.052112   0.010717
    14  H    0.089147   0.010896
    15  H    0.060946  -0.004436
    16  H    0.082698   0.003585
 Sum of Mulliken charges =  -0.00000   1.00000
 Mulliken charges and spin densities with hydrogens summed into heavy atoms:
               1          2
     1  C    0.005576   0.218500
     2  C    0.135790   0.036107
     3  C    0.132039   0.096032
     4  C    0.150954   0.428222
     5  O   -0.079497   0.086416
     6  O   -0.421338   0.025874
     7  S    0.076475   0.108850
 Electronic spatial extent (au):  <R**2>=           1210.5010
 Charge=             -0.0000 electrons
 Dipole moment (field-independent basis, Debye):
    X=              4.2482    Y=             -0.0260    Z=              1.0590  Tot=              4.3783
 Quadrupole moment (field-independent basis, Debye-Ang):
   XX=            -59.1801   YY=            -43.8347   ZZ=            -49.7975
   XY=              3.1380   XZ=              0.0505   YZ=             -0.6089
 Traceless Quadrupole moment (field-independent basis, Debye-Ang):
   XX=             -8.2427   YY=              7.1027   ZZ=              1.1399
   XY=              3.1380   XZ=              0.0505   YZ=             -0.6089
 Octapole moment (field-independent basis, Debye-Ang**2):
  XXX=              5.5008  YYY=              9.2642  ZZZ=              4.5955  XYY=              3.4145
  XXY=              9.4696  XXZ=              6.3445  XZZ=             -8.6393  YZZ=             -0.7204
  YYZ=              2.5908  XYZ=             -0.4735
 Hexadecapole moment (field-independent basis, Debye-Ang**3):
 XXXX=          -1163.1634 YYYY=           -325.7944 ZZZZ=           -221.1590 XXXY=             23.8929
 XXXZ=              8.4339 YYYX=              6.2522 YYYZ=              3.6935 ZZZX=             14.9405
 ZZZY=             -4.6831 XXYY=           -217.3026 XXZZ=           -204.6417 YYZZ=            -87.8845
 XXYZ=            -10.2852 YYXZ=              0.3149 ZZXY=              3.3730
 N-N= 3.798017703433D+02 E-N=-2.424059239878D+03  KE= 7.022744218203D+02
                          Isotropic Fermi Contact Couplings
        Atom                 a.u.       MegaHertz       Gauss      10(-4) cm-1
     1  C(13)              0.16736     188.14212      67.13379      62.75745
     2  C(13)              0.00452       5.07978       1.81259       1.69443
     3  C(13)              0.05334      59.96102      21.39558      20.00084
     4  C(13)              0.23775     267.27321      95.36973      89.15275
     5  O(17)              0.11961     -72.50683     -25.87224     -24.18567
     6  O(17)              0.10245     -62.10433     -22.16037     -20.71578
     7  S(33)              0.63883     219.42166      78.29510      73.19119
     8  H(1)              -0.00369     -16.49114      -5.88445      -5.50085
     9  H(1)              -0.00015      -0.69151      -0.24675      -0.23066
    10  H(1)               0.00148       6.62287       2.36320       2.20915
    11  H(1)              -0.00034      -1.54032      -0.54962      -0.51379
    12  H(1)              -0.00079      -3.53097      -1.25994      -1.17780
    13  H(1)               0.00458      20.47408       7.30566       6.82942
    14  H(1)               0.00661      29.54716      10.54316       9.85587
    15  H(1)              -0.00157      -7.01481      -2.50306      -2.33989
    16  H(1)               0.00211       9.43235       3.36570       3.14629
 --------------------------------------------------------
       Center         ----  Spin Dipole Couplings  ----
                      3XX-RR        3YY-RR        3ZZ-RR
 --------------------------------------------------------
     1   Atom       -0.098164      0.154342     -0.056178
     2   Atom       -0.008022     -0.012613      0.020636
     3   Atom       -0.021288      0.041361     -0.020073
     4   Atom       -0.100332      0.228252     -0.127920
     5   Atom       -0.193300      0.463725     -0.270425
     6   Atom       -0.035200      0.203963     -0.168763
     7   Atom        0.019062     -0.359529      0.340468
     8   Atom       -0.000220     -0.002557      0.002778
     9   Atom       -0.007456      0.009896     -0.002440
    10   Atom        0.006913     -0.003797     -0.003116
    11   Atom        0.001701     -0.001455     -0.000245
    12   Atom        0.001771     -0.002242      0.000471
    13   Atom        0.005189     -0.001456     -0.003733
    14   Atom        0.003329      0.003871     -0.007201
    15   Atom        0.000835      0.002607     -0.003442
    16   Atom       -0.001056     -0.001293      0.002349
 --------------------------------------------------------
                        XY            XZ            YZ
 --------------------------------------------------------
     1   Atom        0.023820      0.000080     -0.111923
     2   Atom       -0.006591     -0.030267      0.016563
     3   Atom        0.034238      0.013277      0.027283
     4   Atom       -0.188469     -0.048020      0.094022
     5   Atom       -0.222746     -0.051571      0.206176
     6   Atom        0.324481      0.106782      0.105366
     7   Atom       -0.111778      0.357950     -0.067134
     8   Atom       -0.002449      0.013123     -0.009009
     9   Atom       -0.009474     -0.010981      0.004284
    10   Atom       -0.002666     -0.010750     -0.007753
    11   Atom        0.001021     -0.004686     -0.000504
    12   Atom        0.001463     -0.004854      0.001549
    13   Atom       -0.004203     -0.002196      0.000324
    14   Atom       -0.001425      0.000608      0.003323
    15   Atom        0.006137     -0.003510      0.001011
    16   Atom        0.002865      0.007319      0.004409
 --------------------------------------------------------


 ---------------------------------------------------------------------------------
              Anisotropic Spin Dipole Couplings in Principal Axis System
 ---------------------------------------------------------------------------------

       Atom             a.u.   MegaHertz   Gauss  10(-4) cm-1        Axes

              Baa    -0.1120   -15.023    -5.361    -5.011 -0.6125  0.3522  0.7076
     1 C(13)  Bbb    -0.0923   -12.392    -4.422    -4.134  0.7872  0.1902  0.5867
              Bcc     0.2043    27.416     9.783     9.145  0.0721  0.9164 -0.3937
 
              Baa    -0.0282    -3.779    -1.348    -1.261  0.7682 -0.2850  0.5732
     2 C(13)  Bbb    -0.0170    -2.276    -0.812    -0.759  0.3992  0.9133 -0.0809
              Bcc     0.0451     6.055     2.161     2.020 -0.5005  0.2910  0.8154
 
              Baa    -0.0366    -4.907    -1.751    -1.637  0.9227 -0.3453 -0.1715
     3 C(13)  Bbb    -0.0304    -4.084    -1.457    -1.362  0.0343 -0.3693  0.9287
              Bcc     0.0670     8.991     3.208     2.999  0.3840  0.8628  0.3289
 
              Baa    -0.1867   -25.052    -8.939    -8.356  0.9135  0.3856  0.1296
     4 C(13)  Bbb    -0.1512   -20.287    -7.239    -6.767 -0.0298 -0.2543  0.9667
              Bcc     0.3379    45.339    16.178    15.123 -0.4057  0.8869  0.2209
 
              Baa    -0.3250    23.514     8.391     7.844 -0.0926 -0.2762  0.9566
     5 O(17)  Bbb    -0.2598    18.801     6.709     6.271  0.9550  0.2473  0.1639
              Bcc     0.5848   -42.315   -15.099   -14.115 -0.2818  0.9287  0.2409
 
              Baa    -0.2718    19.667     7.018     6.560  0.8074 -0.4723 -0.3537
     6 O(17)  Bbb    -0.1928    13.951     4.978     4.654  0.1735 -0.3829  0.9073
              Bcc     0.4646   -33.618   -11.996   -11.214  0.5640  0.7939  0.2272
 
              Baa    -0.3921   -16.075    -5.736    -5.362  0.3163  0.9462 -0.0678
     7 S(33)  Bbb    -0.1946    -7.979    -2.847    -2.661  0.7754 -0.2991 -0.5562
              Bcc     0.5867    24.054     8.583     8.023  0.5466 -0.1233  0.8283
 
              Baa    -0.0139    -7.411    -2.644    -2.472 -0.5873  0.4221  0.6906
     8 H(1)   Bbb    -0.0041    -2.184    -0.779    -0.728  0.5714  0.8205 -0.0155
              Bcc     0.0180     9.595     3.424     3.200  0.5732 -0.3855  0.7231
 
              Baa    -0.0172    -9.161    -3.269    -3.056  0.8126  0.1977  0.5483
     9 H(1)   Bbb    -0.0008    -0.405    -0.145    -0.135 -0.3438 -0.5971  0.7248
              Bcc     0.0179     9.566     3.413     3.191 -0.4706  0.7775  0.4172
 
              Baa    -0.0155    -8.253    -2.945    -2.753  0.4104  0.5678  0.7136
    10 H(1)   Bbb     0.0015     0.782     0.279     0.261 -0.4119  0.8136 -0.4105
              Bcc     0.0140     7.471     2.666     2.492  0.8136  0.1254 -0.5677
 
              Baa    -0.0041    -2.179    -0.777    -0.727  0.6369 -0.1010  0.7643
    11 H(1)   Bbb    -0.0016    -0.855    -0.305    -0.285 -0.0548  0.9829  0.1756
              Bcc     0.0057     3.034     1.082     1.012  0.7690  0.1537 -0.6205
 
              Baa    -0.0053    -2.813    -1.004    -0.938  0.5419 -0.5750  0.6130
    12 H(1)   Bbb    -0.0007    -0.398    -0.142    -0.133  0.3713  0.8181  0.4392
              Bcc     0.0060     3.212     1.146     1.071  0.7540  0.0104 -0.6568
 
              Baa    -0.0045    -2.421    -0.864    -0.808  0.3664  0.4121  0.8342
    13 H(1)   Bbb    -0.0031    -1.645    -0.587    -0.549  0.2732  0.8094 -0.5199
              Bcc     0.0076     4.066     1.451     1.356  0.8894 -0.4184 -0.1840
 
              Baa    -0.0082    -4.377    -1.562    -1.460 -0.0843 -0.2737  0.9581
    14 H(1)   Bbb     0.0027     1.447     0.516     0.483  0.8618  0.4626  0.2080
              Bcc     0.0055     2.930     1.046     0.977 -0.5001  0.8433  0.1968
 
              Baa    -0.0074    -3.939    -1.405    -1.314  0.6106 -0.4417  0.6574
    15 H(1)   Bbb    -0.0008    -0.405    -0.144    -0.135 -0.4130  0.5306  0.7402
              Bcc     0.0081     4.344     1.550     1.449  0.6757  0.7235 -0.1416
 
              Baa    -0.0069    -3.699    -1.320    -1.234  0.7479  0.1291 -0.6511
    16 H(1)   Bbb    -0.0036    -1.898    -0.677    -0.633 -0.3579  0.9046 -0.2317
              Bcc     0.0105     5.597     1.997     1.867  0.5590  0.4063  0.7227
 

 ---------------------------------------------------------------------------------

 Calling FoFJK, ICntrl=      2127 FMM=F ISym2X=0 I1Cent= 0 IOpClX= 1 NMat=1 NMatS=1 NMatT=0.
 ***** Axes restored to original set *****
 -------------------------------------------------------------------
 Center     Atomic                   Forces (Hartrees/Bohr)
 Number     Number              X              Y              Z
 -------------------------------------------------------------------
      1        6           0.017612112   -0.056289012   -0.092977184
      2        6          -0.048973741   -0.132883435   -0.108883526
      3        6          -0.059121995   -0.007149652   -0.006862397
      4        6          -0.090047671    0.103623538   -0.292994918
      5        8           0.097331597   -0.092254525    0.185972124
      6        8           0.038660803   -0.069713141    0.137879341
      7       16          -0.013130746    0.021992363    0.049331024
      8        1           0.039790682    0.007970427    0.004475683
      9        1          -0.058114374    0.079386427    0.048839033
     10        1           0.019461784   -0.012512187    0.028012435
     11        1          -0.029879645    0.042156989    0.029663415
     12        1           0.020031622    0.032836604    0.022068399
     13        1           0.033795995    0.070191072   -0.000090548
     14        1           0.031069844   -0.028622908    0.035089990
     15        1          -0.002440062    0.045808585   -0.026578141
     16        1           0.003953796   -0.004541144   -0.012944731
 -------------------------------------------------------------------
 Cartesian Forces:  Max     0.292994918 RMS     0.074444321

 GradGradGradGradGradGradGradGradGradGradGradGradGradGradGradGradGradGrad
 Berny optimization.
 FormGI is forming the generalized inverse of G from B-inverse, IUseBI=4.
 Internal  Forces:  Max     0.228997764 RMS     0.040408497
 Search for a local minimum.
 Step number   1 out of a maximum of   83
 All quantities printed in internal units (Hartrees-Bohrs-Radians)
 Mixed Optimization -- RFO/linear search
 Second derivative matrix not updated -- first step.
 ITU=  0
     Eigenvalues ---    0.00230   0.00230   0.00230   0.00230   0.02025
     Eigenvalues ---    0.02456   0.02536   0.02648   0.03040   0.03575
     Eigenvalues ---    0.05668   0.05860   0.06151   0.07471   0.08977
     Eigenvalues ---    0.13398   0.13451   0.14202   0.16000   0.16000
     Eigenvalues ---    0.16000   0.16000   0.16000   0.16000   0.16000
     Eigenvalues ---    0.16000   0.16992   0.17359   0.19183   0.22073
     Eigenvalues ---    0.25000   0.25000   0.25743   0.28115   0.34728
     Eigenvalues ---    0.36675   0.38099   0.39926   0.40992   0.49886
     Eigenvalues ---    0.56712   1.87642
 RFO step:  Lambda=-1.86016633D-01 EMin= 2.30000000D-03
 Linear search not attempted -- first point.
 Maximum step size (   0.300) exceeded in Quadratic search.
    -- Step size scaled by   0.478
 Iteration  1 RMS(Cart)=  0.06121578 RMS(Int)=  0.00218686
 Iteration  2 RMS(Cart)=  0.00207508 RMS(Int)=  0.00113438
 Iteration  3 RMS(Cart)=  0.00000872 RMS(Int)=  0.00113437
 Iteration  4 RMS(Cart)=  0.00000006 RMS(Int)=  0.00113437
 Variable       Old X    -DE/DX   Delta X   Delta X   Delta X     New X
                                 (Linear)    (Quad)   (Total)
    R1        3.86677  -0.02813   0.00000  -0.04196  -0.04196   3.82481
    R2        2.24057  -0.02915   0.00000  -0.03142  -0.03142   2.20914
    R3        1.86681   0.10517   0.00000   0.07341   0.07341   1.94022
    R4        2.00921   0.02385   0.00000   0.02011   0.02011   2.02932
    R5        3.67564   0.03269   0.00000   0.04345   0.04345   3.71909
    R6        2.18588  -0.04091   0.00000  -0.04187  -0.04187   2.14402
    R7        2.03040   0.01017   0.00000   0.00880   0.00880   2.03920
    R8        2.52104  -0.06758   0.00000  -0.09077  -0.09077   2.43027
    R9        3.50991  -0.00965   0.00000  -0.01134  -0.01134   3.49856
   R10        1.98354   0.04040   0.00000   0.03300   0.03300   2.01654
   R11        1.96927   0.04961   0.00000   0.03979   0.03979   2.00906
   R12        2.06119   0.00651   0.00000   0.00584   0.00584   2.06702
   R13        2.05903   0.22900   0.00000   0.05308   0.05308   2.11211
   R14        2.53642  -0.10775   0.00000  -0.06840  -0.06840   2.46802
   R15        3.82466   0.07617   0.00000   0.11101   0.11101   3.93567
    A1        1.99611  -0.02646   0.00000  -0.03422  -0.03435   1.96176
    A2        1.83633  -0.00003   0.00000   0.00078   0.00059   1.83692
    A3        2.28567  -0.01924   0.00000  -0.02962  -0.03007   2.25560
    A4        1.52697   0.02488   0.00000   0.04394   0.04425   1.57122
    A5        1.65960   0.02966   0.00000   0.04068   0.04038   1.69998
    A6        2.00413   0.00767   0.00000   0.00698   0.00662   2.01075
    A7        1.42865   0.04551   0.00000   0.07430   0.07475   1.50339
    A8        1.70872  -0.00938   0.00000  -0.00477  -0.00496   1.70377
    A9        1.37857   0.08660   0.00000   0.12199   0.12256   1.50113
   A10        1.80395   0.01585   0.00000   0.02278   0.01501   1.81895
   A11        1.55548   0.01535   0.00000   0.03885   0.03796   1.59344
   A12        2.35041  -0.05072   0.00000  -0.07036  -0.07032   2.28009
   A13        1.88466  -0.00526   0.00000  -0.00710  -0.00731   1.87736
   A14        1.72917   0.02737   0.00000   0.03786   0.03810   1.76728
   A15        1.67463   0.03107   0.00000   0.04280   0.04252   1.71715
   A16        1.89234   0.00574   0.00000   0.00754   0.00786   1.90020
   A17        1.91480  -0.00726   0.00000  -0.00909  -0.00911   1.90569
   A18        2.49849   0.02247   0.00000   0.02464   0.02464   2.52313
   A19        2.31472  -0.01739   0.00000  -0.01907  -0.01907   2.29565
   A20        1.74144   0.00290   0.00000   0.00272   0.00243   1.74387
   A21        2.10611   0.00170   0.00000  -0.00058  -0.00071   2.10540
   A22        1.53310  -0.00576   0.00000  -0.00686  -0.00705   1.52605
   A23        2.00821  -0.01549   0.00000  -0.02406  -0.02395   1.98425
   A24        2.55392   0.02615   0.00000   0.04515   0.04516   2.59908
   A25        1.53003  -0.00468   0.00000  -0.00957  -0.00942   1.52061
   A26        3.13737   0.03612   0.00000   0.06954   0.06979   3.20716
   A27        2.91551  -0.01843   0.00000  -0.03999  -0.04171   2.87381
    D1        1.34466  -0.00628   0.00000  -0.00985  -0.01000   1.33466
    D2       -0.87207   0.01080   0.00000   0.02036   0.02024  -0.85183
    D3       -2.37302   0.01983   0.00000   0.03557   0.03537  -2.33765
    D4       -0.29954  -0.02652   0.00000  -0.04982  -0.04966  -0.34921
    D5       -2.51627  -0.00944   0.00000  -0.01961  -0.01942  -2.53569
    D6        2.26596  -0.00042   0.00000  -0.00440  -0.00429   2.26167
    D7       -2.81840  -0.01063   0.00000  -0.01657  -0.01656  -2.83497
    D8        1.24805   0.00645   0.00000   0.01364   0.01368   1.26173
    D9       -0.25290   0.01548   0.00000   0.02885   0.02881  -0.22409
   D10       -2.53630   0.00146   0.00000   0.00128  -0.00070  -2.53700
   D11       -0.25528  -0.00391   0.00000  -0.01253  -0.01445  -0.26973
   D12        1.98524  -0.00451   0.00000  -0.01120  -0.01331   1.97194
   D13        0.83137   0.01989   0.00000   0.04126   0.04100   0.87238
   D14        3.11239   0.01451   0.00000   0.02746   0.02726   3.13965
   D15       -0.93027   0.01392   0.00000   0.02879   0.02840  -0.90187
   D16       -0.69664  -0.01055   0.00000  -0.01765  -0.01535  -0.71199
   D17        1.58438  -0.01593   0.00000  -0.03146  -0.02909   1.55528
   D18       -2.45828  -0.01652   0.00000  -0.03013  -0.02795  -2.48623
   D19       -1.72383   0.00014   0.00000  -0.00221  -0.00204  -1.72587
   D20        2.47040   0.00913   0.00000   0.01719   0.01736   2.48775
   D21       -0.22113  -0.00951   0.00000  -0.01588  -0.01583  -0.23696
   D22        2.49463   0.00077   0.00000  -0.00108  -0.00110   2.49352
   D23        0.40567   0.00976   0.00000   0.01831   0.01830   0.42396
   D24       -2.28586  -0.00888   0.00000  -0.01475  -0.01489  -2.30075
   D25        0.50037  -0.00127   0.00000  -0.00502  -0.00505   0.49532
   D26       -1.58859   0.00773   0.00000   0.01438   0.01435  -1.57424
   D27        2.00307  -0.01092   0.00000  -0.01868  -0.01884   1.98423
   D28       -3.05058   0.00408   0.00000   0.00926   0.00926  -3.04131
   D29       -0.99536   0.00185   0.00000   0.00415   0.00418  -0.99118
   D30        0.82801   0.00741   0.00000   0.01430   0.01424   0.84225
   D31       -3.10417  -0.00058   0.00000   0.00360   0.00364  -3.10053
         Item               Value     Threshold  Converged?
 Maximum Force            0.228998     0.000450     NO 
 RMS     Force            0.040408     0.000300     NO 
 Maximum Displacement     0.240581     0.001800     NO 
 RMS     Displacement     0.060635     0.001200     NO 
 Predicted change in Energy=-7.719163D-02
 GradGradGradGradGradGradGradGradGradGradGradGradGradGradGradGradGradGrad

                          Input orientation:                          
 ---------------------------------------------------------------------
 Center     Atomic      Atomic             Coordinates (Angstroms)
 Number     Number       Type             X           Y           Z
 ---------------------------------------------------------------------
      1          6           0       -1.734668    2.162169    1.426179
      2          6           0       -0.996185    4.944189    0.398166
      3          6           0        0.983963    2.603437   -0.512058
      4          6           0        0.894707    1.894259    3.441601
      5          8           0        1.371701    1.422060    4.335309
      6          8           0        1.007577    2.093407    2.155799
      7         16           0       -0.124182    3.233639    0.830474
      8          1           0       -2.386893    1.800471    0.525954
      9          1           0       -2.449662    2.859361    1.664640
     10          1           0       -1.772600    1.254099    1.998164
     11          1           0       -0.229033    5.037412   -0.432511
     12          1           0       -1.552357    5.057222    1.315960
     13          1           0       -1.935018    4.232310   -0.117325
     14          1           0        1.921358    2.096332   -0.458692
     15          1           0        1.292650    3.439264   -1.092051
     16          1           0        0.286641    1.997367   -1.097607
 ---------------------------------------------------------------------
                    Distance matrix (angstroms):
                    1          2          3          4          5
     1  C    0.000000
     2  C    3.056437   0.000000
     3  C    3.367854   3.198220   0.000000
     4  C    3.323750   4.705320   4.017751   0.000000
     5  O    4.319760   5.789073   5.004294   1.117680   0.000000
     6  O    2.838483   3.902729   2.716275   1.306019   2.309449
     7  S    2.024001   1.968060   1.851360   3.106454   4.219401
     8  H    1.169029   3.439966   3.617305   4.390751   5.364831
     9  H    1.026721   2.839553   4.073487   3.908173   4.878640
    10  H    1.073870   4.096289   3.964917   3.099651   3.921362
    11  H    3.740146   1.134565   2.720646   5.113799   6.193967
    12  H    2.902881   1.079096   3.974371   4.528886   5.557066
    13  H    2.589987   1.286044   3.365930   5.112707   6.217543
    14  H    4.113830   4.166119   1.067105   4.038208   4.872289
    15  H    4.139700   3.118383   1.063149   4.806183   5.790647
    16  H    3.237645   3.544960   1.093822   4.580915   5.570001
                    6          7          8          9         10
     6  O    0.000000
     7  S    2.082665   0.000000
     8  H    3.776855   2.695657   0.000000
     9  H    3.574972   2.498755   1.556212   0.000000
    10  H    2.908379   2.828314   1.686203   1.773843   0.000000
    11  H    4.110440   2.204478   4.006595   3.751419   4.754392
    12  H    4.005345   2.366608   3.453547   2.399443   3.870097
    13  H    4.289623   2.274817   2.555747   2.307650   3.656695
    14  H    2.769578   2.672012   4.429231   4.919000   4.515620
    15  H    3.527197   2.397039   4.340809   4.684072   4.870332
    16  H    3.333710   2.326938   3.134087   3.982511   3.791665
                   11         12         13         14         15
    11  H    0.000000
    12  H    2.192882   0.000000
    13  H    1.912568   1.697414   0.000000
    14  H    3.643462   4.897239   4.421602   0.000000
    15  H    2.303169   4.063295   3.463647   1.612415   0.000000
    16  H    3.154385   4.309284   3.300256   1.757927   1.758168
                   16
    16  H    0.000000
 Stoichiometry    C4H9O2S(2)
 Framework group  C1[X(C4H9O2S)]
 Deg. of freedom    42
 Full point group                 C1      NOp   1
 Largest Abelian subgroup         C1      NOp   1
 Largest concise Abelian subgroup C1      NOp   1
                         Standard orientation:                         
 ---------------------------------------------------------------------
 Center     Atomic      Atomic             Coordinates (Angstroms)
 Number     Number       Type             X           Y           Z
 ---------------------------------------------------------------------
      1          6           0        0.462871   -1.492293    1.080991
      2          6           0        2.322122   -0.648004   -1.193249
      3          6           0        1.171368    1.760131    0.568928
      4          6           0       -2.263684   -0.149789   -0.264703
      5          8           0       -3.378523   -0.116260   -0.336946
      6          8           0       -1.193537    0.547584    0.007586
      7         16           0        0.831412    0.082354   -0.136073
      8          1           0        1.251993   -1.586997    1.938281
      9          1           0        0.879230   -2.302682    0.607628
     10          1           0       -0.408695   -1.705306    1.671071
     11          1           0        2.731813    0.409953   -1.204191
     12          1           0        1.861351   -1.586302   -1.461083
     13          1           0        2.748873   -1.140546   -0.084558
     14          1           0        0.529753    2.603067    0.697387
     15          1           0        1.911559    2.220076   -0.040049
     16          1           0        1.611952    1.500221    1.535767
 ---------------------------------------------------------------------
 Rotational constants (GHZ):           3.2625345           1.1215921           1.0059615
 Standard basis: SVP (5D, 7F)
 There are   154 symmetry adapted cartesian basis functions of A   symmetry.
 There are   147 symmetry adapted basis functions of A   symmetry.
   147 basis functions,   250 primitive gaussians,   154 cartesian basis functions
    33 alpha electrons       32 beta electrons
       nuclear repulsion energy       377.3825131847 Hartrees.
 NAtoms=   16 NActive=   16 NUniq=   16 SFac= 1.00D+00 NAtFMM=   60 NAOKFM=F Big=F
 Integral buffers will be    131072 words long.
 Raffenetti 2 integral format.
 Two-electron integral symmetry is turned on.
 Nuclear repulsion after empirical dispersion term =      377.3706552009 Hartrees.
 One-electron integrals computed using PRISM.
 NBasis=   147 RedAO= T EigKep=  6.28D-03  NBF=   147
 NBsUse=   147 1.00D-06 EigRej= -1.00D+00 NBFU=   147
 Initial guess from the checkpoint file:  "305_trj10_frag1.chk"
 B after Tr=     0.000000    0.000000    0.000000
         Rot=    0.999960    0.006605    0.004676   -0.003811 Ang=   1.02 deg.
 Initial guess <Sx>= 0.0000 <Sy>= 0.0000 <Sz>= 0.5000 <S**2>= 0.7683 S= 0.5091
 ExpMin= 1.22D-01 ExpMax= 9.18D+03 ExpMxC= 1.38D+03 IAcc=2 IRadAn=         4 AccDes= 0.00D+00
 Harris functional with IExCor= 1009 and IRadAn=       4 diagonalized for initial guess.
 HarFok:  IExCor= 1009 AccDes= 0.00D+00 IRadAn=         4 IDoV= 1 UseB2=F ITyADJ=14
 ICtDFT=  3500011 ScaDFX=  1.000000  1.000000  1.000000  1.000000
 FoFCou: FMM=F IPFlag=           0 FMFlag=      100000 FMFlg1=           0
         NFxFlg=           0 DoJE=T BraDBF=F KetDBF=T FulRan=T
         wScrn=  0.000000 ICntrl=       500 IOpCl=  0 I1Cent=   200000004 NGrid=           0
         NMat0=    1 NMatS0=      1 NMatT0=    0 NMatD0=    1 NMtDS0=    0 NMtDT0=    0
 Petite list used in FoFCou.
 Requested convergence on RMS density matrix=1.00D-08 within  32 cycles.
 Requested convergence on MAX density matrix=1.00D-06.
 Requested convergence on             energy=1.00D-06.
 No special actions if energy rises.
 Integral accuracy reduced to 1.0D-05 until final iterations.
 Initial convergence to 1.0D-05 achieved.  Increase integral accuracy.
 SCF Done:  E(UPBE1PBE) =  -705.320389509     A.U. after   20 cycles
            NFock= 20  Conv=0.93D-08     -V/T= 2.0047
 <Sx>= 0.0000 <Sy>= 0.0000 <Sz>= 0.5000 <S**2>= 0.7616 S= 0.5058
 <L.S>=  0.00000000000    
 Annihilation of the first spin contaminant:
 S**2 before annihilation     0.7616,   after     0.7501
 QCSCF skips out because SCF is already converged.
 Calling FoFJK, ICntrl=      2127 FMM=F ISym2X=0 I1Cent= 0 IOpClX= 1 NMat=1 NMatS=1 NMatT=0.
 ***** Axes restored to original set *****
 -------------------------------------------------------------------
 Center     Atomic                   Forces (Hartrees/Bohr)
 Number     Number              X              Y              Z
 -------------------------------------------------------------------
      1        6          -0.010054657   -0.033624348   -0.074741272
      2        6          -0.052348556   -0.133310170   -0.091223889
      3        6          -0.037978289   -0.001716320   -0.016767159
      4        6          -0.048991723    0.066620512   -0.217760053
      5        8           0.056554731   -0.056382586    0.123654344
      6        8           0.030215038   -0.058008549    0.117889064
      7       16          -0.014529666    0.031154991    0.040570380
      8        1           0.034257449    0.007255705    0.005099422
      9        1          -0.030224552    0.047014798    0.037488866
     10        1           0.017566571   -0.004752490    0.022057633
     11        1          -0.020129162    0.038993764    0.026113779
     12        1           0.021045490    0.033634517    0.017109174
     13        1           0.038786533    0.055830152    0.005548707
     14        1           0.016124414   -0.017879704    0.030933988
     15        1          -0.004286105    0.028807009   -0.016602956
     16        1           0.003992482   -0.003637281   -0.009370027
 -------------------------------------------------------------------
 Cartesian Forces:  Max     0.217760053 RMS     0.056423031

 GradGradGradGradGradGradGradGradGradGradGradGradGradGradGradGradGradGrad
 Berny optimization.
 Using GEDIIS/GDIIS optimizer.
 FormGI is forming the generalized inverse of G from B-inverse, IUseBI=4.
 Internal  Forces:  Max     0.146831802 RMS     0.029356325
 Search for a local minimum.
 Step number   2 out of a maximum of   83
 All quantities printed in internal units (Hartrees-Bohrs-Radians)
 Mixed Optimization -- RFO/linear search
 Update second derivatives using D2CorX and points    1    2
 DE= -7.88D-02 DEPred=-7.72D-02 R= 1.02D+00
 TightC=F SS=  1.41D+00  RLast= 3.21D-01 DXNew= 5.0454D-01 9.6431D-01
 Trust test= 1.02D+00 RLast= 3.21D-01 DXMaxT set to 5.05D-01
 ITU=  1  0
 Use linear search instead of GDIIS.
 Linear search step of   0.600 exceeds DXMaxT=   0.505 but not scaled.
 Quartic linear search produced a step of  2.00000.
 Iteration  1 RMS(Cart)=  0.11205170 RMS(Int)=  0.00962063
 Iteration  2 RMS(Cart)=  0.00849708 RMS(Int)=  0.00682748
 Iteration  3 RMS(Cart)=  0.00017405 RMS(Int)=  0.00682649
 Iteration  4 RMS(Cart)=  0.00000791 RMS(Int)=  0.00682649
 Iteration  5 RMS(Cart)=  0.00000031 RMS(Int)=  0.00682649
 Variable       Old X    -DE/DX   Delta X   Delta X   Delta X     New X
                                 (Linear)    (Quad)   (Total)
    R1        3.82481  -0.02057  -0.08392   0.00000  -0.08392   3.74089
    R2        2.20914  -0.02528  -0.06284   0.00000  -0.06284   2.14630
    R3        1.94022   0.06168   0.14683   0.00000   0.14683   2.08705
    R4        2.02932   0.01515   0.04021   0.00000   0.04021   2.06953
    R5        3.71909   0.01071   0.08690   0.00000   0.08690   3.80600
    R6        2.14402  -0.02953  -0.08373   0.00000  -0.08373   2.06029
    R7        2.03920   0.00723   0.01760   0.00000   0.01760   2.05679
    R8        2.43027  -0.06144  -0.18154   0.00000  -0.18154   2.24873
    R9        3.49856  -0.00659  -0.02269   0.00000  -0.02269   3.47588
   R10        2.01654   0.02421   0.06600   0.00000   0.06600   2.08254
   R11        2.00906   0.03046   0.07958   0.00000   0.07958   2.08864
   R12        2.06702   0.00449   0.01168   0.00000   0.01168   2.07870
   R13        2.11211   0.14683   0.10616   0.00000   0.10616   2.21827
   R14        2.46802  -0.09486  -0.13679   0.00000  -0.13679   2.33122
   R15        3.93567   0.06182   0.22201   0.00000   0.22201   4.15768
    A1        1.96176  -0.02243  -0.06870   0.00000  -0.06970   1.89206
    A2        1.83692   0.00126   0.00118   0.00000  -0.00009   1.83682
    A3        2.25560  -0.01842  -0.06014   0.00000  -0.06291   2.19269
    A4        1.57122   0.02179   0.08849   0.00000   0.09006   1.66128
    A5        1.69998   0.02566   0.08076   0.00000   0.07863   1.77862
    A6        2.01075   0.00560   0.01325   0.00000   0.01097   2.02172
    A7        1.50339   0.03977   0.14949   0.00000   0.14407   1.64747
    A8        1.70377  -0.00475  -0.00991   0.00000  -0.00801   1.69576
    A9        1.50113   0.06431   0.24511   0.00000   0.23823   1.73936
   A10        1.81895   0.00677   0.03001   0.00000  -0.01679   1.80217
   A11        1.59344   0.01474   0.07593   0.00000   0.06702   1.66046
   A12        2.28009  -0.04319  -0.14065   0.00000  -0.14041   2.13968
   A13        1.87736  -0.00340  -0.01461   0.00000  -0.01595   1.86141
   A14        1.76728   0.02245   0.07621   0.00000   0.07770   1.84498
   A15        1.71715   0.02501   0.08503   0.00000   0.08301   1.80016
   A16        1.90020   0.00581   0.01572   0.00000   0.01789   1.91809
   A17        1.90569  -0.00542  -0.01821   0.00000  -0.01827   1.88742
   A18        2.52313   0.02119   0.04927   0.00000   0.04927   2.57240
   A19        2.29565  -0.01655  -0.03814   0.00000  -0.03814   2.25752
   A20        1.74387   0.00070   0.00487   0.00000   0.00315   1.74702
   A21        2.10540   0.00247  -0.00142   0.00000  -0.00219   2.10321
   A22        1.52605  -0.00403  -0.01410   0.00000  -0.01522   1.51083
   A23        1.98425  -0.01338  -0.04791   0.00000  -0.04725   1.93701
   A24        2.59908   0.02227   0.09031   0.00000   0.09035   2.68942
   A25        1.52061  -0.00340  -0.01884   0.00000  -0.01795   1.50266
   A26        3.20716   0.03502   0.13958   0.00000   0.13606   3.34322
   A27        2.87381  -0.02137  -0.08341   0.00000  -0.09431   2.77949
    D1        1.33466  -0.00547  -0.02000   0.00000  -0.02085   1.31381
    D2       -0.85183   0.01007   0.04048   0.00000   0.03971  -0.81212
    D3       -2.33765   0.01668   0.07075   0.00000   0.06952  -2.26813
    D4       -0.34921  -0.02341  -0.09932   0.00000  -0.09832  -0.44752
    D5       -2.53569  -0.00787  -0.03884   0.00000  -0.03776  -2.57345
    D6        2.26167  -0.00126  -0.00858   0.00000  -0.00794   2.25372
    D7       -2.83497  -0.00887  -0.03313   0.00000  -0.03299  -2.86795
    D8        1.26173   0.00667   0.02735   0.00000   0.02757   1.28931
    D9       -0.22409   0.01328   0.05762   0.00000   0.05739  -0.16670
   D10       -2.53700  -0.00353  -0.00141   0.00000  -0.01296  -2.54997
   D11       -0.26973  -0.00791  -0.02890   0.00000  -0.04005  -0.30978
   D12        1.97194  -0.00826  -0.02661   0.00000  -0.03880   1.93314
   D13        0.87238   0.01783   0.08201   0.00000   0.08135   0.95373
   D14        3.13965   0.01345   0.05452   0.00000   0.05426  -3.08928
   D15       -0.90187   0.01311   0.05680   0.00000   0.05551  -0.84636
   D16       -0.71199  -0.00594  -0.03070   0.00000  -0.01825  -0.73024
   D17        1.55528  -0.01032  -0.05818   0.00000  -0.04534   1.50995
   D18       -2.48623  -0.01067  -0.05590   0.00000  -0.04409  -2.53032
   D19       -1.72587  -0.00049  -0.00409   0.00000  -0.00288  -1.72875
   D20        2.48775   0.00869   0.03471   0.00000   0.03597   2.52372
   D21       -0.23696  -0.00747  -0.03166   0.00000  -0.03114  -0.26810
   D22        2.49352   0.00000  -0.00220   0.00000  -0.00247   2.49106
   D23        0.42396   0.00918   0.03659   0.00000   0.03638   0.46034
   D24       -2.30075  -0.00698  -0.02978   0.00000  -0.03073  -2.33148
   D25        0.49532  -0.00260  -0.01010   0.00000  -0.01040   0.48492
   D26       -1.57424   0.00659   0.02870   0.00000   0.02845  -1.54580
   D27        1.98423  -0.00958  -0.03767   0.00000  -0.03866   1.94557
   D28       -3.04131   0.00339   0.01852   0.00000   0.01852  -3.02279
   D29       -0.99118   0.00235   0.00837   0.00000   0.00857  -0.98261
   D30        0.84225   0.00577   0.02847   0.00000   0.02804   0.87028
   D31       -3.10053  -0.00075   0.00728   0.00000   0.00751  -3.09302
         Item               Value     Threshold  Converged?
 Maximum Force            0.146832     0.000450     NO 
 RMS     Force            0.029356     0.000300     NO 
 Maximum Displacement     0.442167     0.001800     NO 
 RMS     Displacement     0.115968     0.001200     NO 
 Predicted change in Energy=-9.807587D-02
 GradGradGradGradGradGradGradGradGradGradGradGradGradGradGradGradGradGrad

                          Input orientation:                          
 ---------------------------------------------------------------------
 Center     Atomic      Atomic             Coordinates (Angstroms)
 Number     Number       Type             X           Y           Z
 ---------------------------------------------------------------------
      1          6           0       -1.698953    2.161214    1.448493
      2          6           0       -1.058012    4.923149    0.293500
      3          6           0        0.953874    2.594068   -0.494125
      4          6           0        0.930585    1.777666    3.413628
      5          8           0        1.367811    1.300877    4.393141
      6          8           0        1.063737    1.969613    2.202318
      7         16           0       -0.137636    3.219585    0.847724
      8          1           0       -2.263430    1.802132    0.530666
      9          1           0       -2.457444    2.906455    1.746902
     10          1           0       -1.657228    1.252328    2.058030
     11          1           0       -0.367387    5.128820   -0.524666
     12          1           0       -1.573438    5.110893    1.233564
     13          1           0       -2.007617    4.466295   -0.259291
     14          1           0        1.913701    2.091403   -0.292802
     15          1           0        1.251450    3.472302   -1.095590
     16          1           0        0.317987    1.950201   -1.119493
 ---------------------------------------------------------------------
                    Distance matrix (angstroms):
                    1          2          3          4          5
     1  C    0.000000
     2  C    3.061551   0.000000
     3  C    3.316417   3.176894   0.000000
     4  C    3.305046   4.856313   3.992191   0.000000
     5  O    4.337761   5.984356   5.072381   1.173857   0.000000
     6  O    2.870091   4.107162   2.769985   1.233631   2.310708
     7  S    1.979591   2.014047   1.839355   3.131148   4.303230
     8  H    1.135774   3.354106   3.468199   4.302767   5.325024
     9  H    1.104418   2.852690   4.093516   3.940923   4.920674
    10  H    1.095148   4.116740   3.889938   2.968233   3.821774
    11  H    3.804354   1.090256   2.858606   5.331521   6.469071
    12  H    2.960161   1.088408   3.963158   4.704594   5.757611
    13  H    2.885342   1.189977   3.511526   5.417757   6.561898
    14  H    4.011017   4.146518   1.102030   3.847411   4.783407
    15  H    4.110497   3.060742   1.105263   4.827814   5.903794
    16  H    3.272175   3.567680   1.100001   4.577579   5.649149
                    6          7          8          9         10
     6  O    0.000000
     7  S    2.200148   0.000000
     8  H    3.727266   2.574626   0.000000
     9  H    3.672028   2.507604   1.654207   0.000000
    10  H    2.817618   2.764797   1.732803   1.863674   0.000000
    11  H    4.411932   2.362503   3.971845   3.803586   4.833342
    12  H    4.214358   2.405711   3.452253   2.429924   3.946554
    13  H    4.661132   2.505314   2.790561   2.580747   3.977729
    14  H    2.638730   2.604147   4.267342   4.891994   4.356833
    15  H    3.628981   2.402061   4.217648   4.706998   4.830529
    16  H    3.404548   2.385135   3.067354   4.102884   3.805937
                   11         12         13         14         15
    11  H    0.000000
    12  H    2.132194   0.000000
    13  H    1.788776   1.683044   0.000000
    14  H    3.805657   4.858729   4.584536   0.000000
    15  H    2.385506   4.011225   3.508409   1.729141   0.000000
    16  H    3.305627   4.370851   3.532578   1.802681   1.785697
                   16
    16  H    0.000000
 Stoichiometry    C4H9O2S(2)
 Framework group  C1[X(C4H9O2S)]
 Deg. of freedom    42
 Full point group                 C1      NOp   1
 Largest Abelian subgroup         C1      NOp   1
 Largest concise Abelian subgroup C1      NOp   1
                         Standard orientation:                         
 ---------------------------------------------------------------------
 Center     Atomic      Atomic             Coordinates (Angstroms)
 Number     Number       Type             X           Y           Z
 ---------------------------------------------------------------------
      1          6           0        0.452072   -1.438917    1.079417
      2          6           0        2.482158   -0.643674   -1.069871
      3          6           0        1.151735    1.756164    0.531194
      4          6           0       -2.277216   -0.132956   -0.250540
      5          8           0       -3.443714   -0.194518   -0.366435
      6          8           0       -1.293460    0.567752    0.000613
      7         16           0        0.845298    0.070898   -0.139030
      8          1           0        1.201622   -1.415973    1.932430
      9          1           0        0.886050   -2.328310    0.589130
     10          1           0       -0.491283   -1.600075    1.611827
     11          1           0        2.953039    0.334207   -1.173204
     12          1           0        2.046049   -1.580766   -1.410898
     13          1           0        3.048300   -1.122157   -0.138967
     14          1           0        0.374070    2.536688    0.553360
     15          1           0        1.942665    2.207198   -0.095388
     16          1           0        1.559611    1.605241    1.541571
 ---------------------------------------------------------------------
 Rotational constants (GHZ):           3.4084070           1.0730754           0.9634939
 Standard basis: SVP (5D, 7F)
 There are   154 symmetry adapted cartesian basis functions of A   symmetry.
 There are   147 symmetry adapted basis functions of A   symmetry.
   147 basis functions,   250 primitive gaussians,   154 cartesian basis functions
    33 alpha electrons       32 beta electrons
       nuclear repulsion energy       373.5003559020 Hartrees.
 NAtoms=   16 NActive=   16 NUniq=   16 SFac= 1.00D+00 NAtFMM=   60 NAOKFM=F Big=F
 Integral buffers will be    131072 words long.
 Raffenetti 2 integral format.
 Two-electron integral symmetry is turned on.
 Nuclear repulsion after empirical dispersion term =      373.4885648524 Hartrees.
 One-electron integrals computed using PRISM.
 NBasis=   147 RedAO= T EigKep=  6.39D-03  NBF=   147
 NBsUse=   147 1.00D-06 EigRej= -1.00D+00 NBFU=   147
 Initial guess from the checkpoint file:  "305_trj10_frag1.chk"
 B after Tr=    -0.000000    0.000000    0.000000
         Rot=    0.999868    0.012607    0.008023   -0.006420 Ang=   1.86 deg.
 Initial guess <Sx>= 0.0000 <Sy>= 0.0000 <Sz>= 0.5000 <S**2>= 0.7608 S= 0.5054
 ExpMin= 1.22D-01 ExpMax= 9.18D+03 ExpMxC= 1.38D+03 IAcc=2 IRadAn=         4 AccDes= 0.00D+00
 Harris functional with IExCor= 1009 and IRadAn=       4 diagonalized for initial guess.
 HarFok:  IExCor= 1009 AccDes= 0.00D+00 IRadAn=         4 IDoV= 1 UseB2=F ITyADJ=14
 ICtDFT=  3500011 ScaDFX=  1.000000  1.000000  1.000000  1.000000
 FoFCou: FMM=F IPFlag=           0 FMFlag=      100000 FMFlg1=           0
         NFxFlg=           0 DoJE=T BraDBF=F KetDBF=T FulRan=T
         wScrn=  0.000000 ICntrl=       500 IOpCl=  0 I1Cent=   200000004 NGrid=           0
         NMat0=    1 NMatS0=      1 NMatT0=    0 NMatD0=    1 NMtDS0=    0 NMtDT0=    0
 Petite list used in FoFCou.
 Requested convergence on RMS density matrix=1.00D-08 within  32 cycles.
 Requested convergence on MAX density matrix=1.00D-06.
 Requested convergence on             energy=1.00D-06.
 No special actions if energy rises.
 Integral accuracy reduced to 1.0D-05 until final iterations.
 Failed to achieve initial convergence to 1.0D-08 in 10 cycles.
 Switch to full accuracy anyway.
 SCF Done:  E(UPBE1PBE) =  -705.418456917     A.U. after   20 cycles
            NFock= 20  Conv=0.86D-08     -V/T= 2.0053
 <Sx>= 0.0000 <Sy>= 0.0000 <Sz>= 0.5000 <S**2>= 0.7570 S= 0.5035
 <L.S>=  0.00000000000    
 Annihilation of the first spin contaminant:
 S**2 before annihilation     0.7570,   after     0.7500
 QCSCF skips out because SCF is already converged.
 Calling FoFJK, ICntrl=      2127 FMM=F ISym2X=0 I1Cent= 0 IOpClX= 1 NMat=1 NMatS=1 NMatT=0.
 ***** Axes restored to original set *****
 -------------------------------------------------------------------
 Center     Atomic                   Forces (Hartrees/Bohr)
 Number     Number              X              Y              Z
 -------------------------------------------------------------------
      1        6          -0.046520280   -0.003003388   -0.035925348
      2        6          -0.052334371   -0.118020887   -0.046724739
      3        6          -0.002463683    0.009342584   -0.029034698
      4        6          -0.003660968    0.010177438   -0.061752969
      5        8           0.005096177   -0.005979303    0.023747319
      6        8           0.022085022   -0.033427015    0.049311798
      7       16          -0.012883552    0.041527817    0.023836302
      8        1           0.021099679    0.004209214    0.003209152
      9        1           0.008363695   -0.000612060    0.016821442
     10        1           0.012381122    0.008636830    0.010430683
     11        1           0.004523320    0.036401486    0.013757937
     12        1           0.023600953    0.032551544    0.008619046
     13        1           0.031408816    0.020513077    0.007918350
     14        1          -0.008576836   -0.000793715    0.018255689
     15        1          -0.005605411    0.000125514    0.000007664
     16        1           0.003486318   -0.001649133   -0.002477627
 -------------------------------------------------------------------
 Cartesian Forces:  Max     0.118020887 RMS     0.029090923

 GradGradGradGradGradGradGradGradGradGradGradGradGradGradGradGradGradGrad
[...]
     16        1          -0.000340996   -0.000131412    0.000130505
 -------------------------------------------------------------------
 Cartesian Forces:  Max     0.002614067 RMS     0.000943740

 GradGradGradGradGradGradGradGradGradGradGradGradGradGradGradGradGradGrad
 Berny optimization.
 Using GEDIIS/GDIIS optimizer.
 FormGI is forming the generalized inverse of G from B-inverse, IUseBI=4.
 Internal  Forces:  Max     0.005043941 RMS     0.000835417
 Search for a local minimum.
 Step number  16 out of a maximum of   83
 All quantities printed in internal units (Hartrees-Bohrs-Radians)
 Mixed Optimization -- En-DIIS/RFO-DIIS
 Swapping is turned off.
 Update second derivatives using D2CorX and points   15   16
 DE= -4.95D-05 DEPred=-1.02D-04 R= 4.86D-01
 Trust test= 4.86D-01 RLast= 3.42D-01 DXMaxT set to 3.00D+00
 ITU=  0  1  1  1  1  1  1  1  1  1  1  1  1  0  1  0
     Eigenvalues ---    0.00002   0.00047   0.00218   0.00235   0.00238
     Eigenvalues ---    0.00247   0.00794   0.01525   0.03328   0.05071
     Eigenvalues ---    0.05399   0.05775   0.06045   0.07334   0.08108
     Eigenvalues ---    0.09108   0.10825   0.13387   0.15931   0.16046
     Eigenvalues ---    0.16141   0.16377   0.16504   0.16888   0.17215
     Eigenvalues ---    0.19465   0.21888   0.22117   0.23477   0.25381
     Eigenvalues ---    0.26128   0.27762   0.29410   0.32026   0.34844
     Eigenvalues ---    0.37520   0.38578   0.40441   0.41840   0.52362
     Eigenvalues ---    0.68140   1.61300
 Eigenvalue     1 is   1.74D-05 Eigenvector:
                          D28       A19       D30       R15       D15
   1                    0.99980   0.01052   0.00791  -0.00766  -0.00429
                          D10       D18       D16       R1        D8
   1                    0.00425  -0.00381   0.00342  -0.00337   0.00320
 En-DIIS/RFO-DIIS/Sim-DIIS IScMMF=       -3 using points:    16   15
 RFO step:  Lambda=-3.26727127D-04.
 DidBck=F Rises=F RFO-DIIS coefs:    1.80052   -0.80052
 New curvilinear step failed:  FormB failed.
 Iteration  1 RMS(Cart)=  0.00157602 RMS(Int)=  0.01807483
 Iteration  2 RMS(Cart)=  0.01788647 RMS(Int)=  0.00585321
 Iteration  3 RMS(Cart)=  0.00141051 RMS(Int)=  0.00427627
 New curvilinear step failed:  FormB failed.
 ITry= 2 IFail=2 DXMaxC= 6.70D-02 DCOld= 1.00D+10 DXMaxT= 3.00D+00 DXLimC= 3.00D+00 Rises=F
 Iteration  1 RMS(Cart)=  0.00141947 RMS(Int)=  0.01777940
 New curvilinear step failed:  FormB failed.
 ITry= 3 IFail=2 DXMaxC= 6.10D-02 DCOld= 1.00D+10 DXMaxT= 3.00D+00 DXLimC= 3.00D+00 Rises=F
 Iteration  1 RMS(Cart)=  0.00127425 RMS(Int)=  0.01753372
 New curvilinear step failed:  FormB failed.
 ITry= 4 IFail=2 DXMaxC= 5.93D-02 DCOld= 1.00D+10 DXMaxT= 3.00D+00 DXLimC= 3.00D+00 Rises=F
 Iteration  1 RMS(Cart)=  0.00114267 RMS(Int)=  0.01732977
 Iteration  2 RMS(Cart)=  0.01617440 RMS(Int)=  0.00495074
 Iteration  3 RMS(Cart)=  0.00070438 RMS(Int)=  0.00316280
 New curvilinear step failed:  FormB failed.
 ITry= 5 IFail=2 DXMaxC= 5.92D-02 DCOld= 1.00D+10 DXMaxT= 3.00D+00 DXLimC= 3.00D+00 Rises=F
 New curvilinear step failed:  FormB failed.
 ITry= 6 IFail=2 DXMaxC= 3.11D-03 DCOld= 1.00D+10 DXMaxT= 3.00D+00 DXLimC= 3.00D+00 Rises=F
 New curvilinear step failed:  FormB failed.
 ITry= 7 IFail=2 DXMaxC= 2.77D-03 DCOld= 1.00D+10 DXMaxT= 3.00D+00 DXLimC= 3.00D+00 Rises=F
 Iteration  1 RMS(Cart)=  0.00082791 RMS(Int)=  0.01700910
 New curvilinear step failed:  FormB failed.
 ITry= 8 IFail=2 DXMaxC= 4.73D-02 DCOld= 1.00D+10 DXMaxT= 3.00D+00 DXLimC= 3.00D+00 Rises=F
 New curvilinear step failed:  FormB failed.
 ITry= 9 IFail=2 DXMaxC= 2.19D-03 DCOld= 1.00D+10 DXMaxT= 3.00D+00 DXLimC= 3.00D+00 Rises=F
 Iteration  1 RMS(Cart)=  0.00067472 RMS(Int)=  0.01712902
 Iteration  2 RMS(Cart)=  0.01480200 RMS(Int)=  0.00216960
 New curvilinear step failed:  FormB failed.
 ITry=10 IFail=2 DXMaxC= 4.56D-02 DCOld= 1.00D+10 DXMaxT= 3.00D+00 DXLimC= 3.00D+00 Rises=F
 Variable       Old X    -DE/DX   Delta X   Delta X   Delta X     New X
                                 (Linear)    (Quad)   (Total)
    R1        6.20642   0.00081   0.06843  -0.00676   0.06583   6.27226
    R2        2.05839   0.00055   0.00017   0.00299   0.00013   2.05851
    R3        2.05735   0.00134  -0.00163   0.00287  -0.00123   2.05612
    R4        2.06001   0.00009   0.00076  -0.00083   0.00128   2.06129
    R5        3.39329   0.00307  -0.00622   0.01788  -0.00722   3.38607
    R6        2.08167  -0.00037   0.00060  -0.00175   0.00041   2.08208
    R7        2.07418   0.00038   0.00087  -0.00010   0.00066   2.07483
    R8        2.08052   0.00020  -0.00053   0.00149  -0.00017   2.08035
    R9        3.40488   0.00018   0.00687  -0.00411   0.00438   3.40927
   R10        2.07832  -0.00060   0.00089  -0.00244   0.00002   2.07835
   R11        2.08099   0.00007  -0.00073   0.00040  -0.00051   2.08049
   R12        2.08097   0.00004  -0.00027   0.00014  -0.00041   2.08056
   R13        2.19054  -0.00014   0.00000  -0.00074   0.00002   2.19057
   R14        2.19029   0.00054   0.00000   0.00046   0.00002   2.19031
   R15        6.36230  -0.00144   0.01913  -0.00398   0.00677   6.36908
    A1        1.59579   0.00043  -0.00951   0.00641  -0.00834   1.58745
    A2        1.55152   0.00121  -0.01312   0.01000  -0.01171   1.53981
    A3        1.50821   0.00003  -0.01330   0.00450  -0.01240   1.49581
    A4        2.10019  -0.00011  -0.00457  -0.00024  -0.00516   2.09503
    A5        2.09561  -0.00014  -0.00128  -0.00103  -0.00185   2.09377
    A6        2.08554   0.00036   0.00444   0.00263   0.00425   2.08979
    A7        1.94555  -0.00015  -0.00048   0.00189   0.00022   1.94577
    A8        1.86782   0.00056  -0.00112   0.00627  -0.00090   1.86692
    A9        1.94172   0.00045  -0.00196   0.00659  -0.00180   1.93991
   A10        1.90630   0.00002  -0.00047   0.00537  -0.00016   1.90614
   A11        1.89714  -0.00042  -0.00115   0.00025  -0.00093   1.89621
   A12        1.85963   0.00026  -0.00120   0.00480  -0.00010   1.85953
   A13        1.95955  -0.00161   0.00368  -0.01144   0.00193   1.96148
   A14        1.94782  -0.00024  -0.00694   0.00176  -0.00684   1.94097
   A15        1.89242   0.00064   0.00150   0.00177   0.00173   1.89416
   A16        1.89636   0.00015   0.00214   0.00087   0.00197   1.89833
   A17        1.90586   0.00085   0.00101   0.00262   0.00152   1.90738
   A18        3.14159  -0.00053   0.00000  -0.00152   0.00000   3.14159
   A19        1.59546  -0.00504   0.00092  -0.03305   0.00035   1.59581
   A20        1.48593  -0.00036   0.00097  -0.00283   0.00129   1.48723
   A21        2.91413  -0.00032   0.01345  -0.00409   0.01282   2.92695
   A22        1.68095  -0.00068  -0.00031  -0.00166  -0.00116   1.67979
   A23        1.73165   0.00053  -0.00137   0.00455  -0.00198   1.72966
   A24        3.11560   0.00107   0.00015   0.00450   0.00035   3.11594
   A25        1.38395   0.00054   0.00135  -0.00004   0.00239   1.38634
   A26        3.81337   0.00041  -0.00161   0.00817  -0.00068   3.81269
   A27        2.08069  -0.00032   0.00553  -0.02075   0.00401   2.08469
    D1        1.14194   0.00015  -0.00972  -0.01997  -0.01158   1.13037
    D2       -0.78137  -0.00019  -0.02650  -0.02219  -0.02850  -0.80987
    D3       -1.99361  -0.00010  -0.01238  -0.02057  -0.01425  -2.00786
    D4       -0.95798   0.00024  -0.00471  -0.01986  -0.00645  -0.96443
    D5       -2.88130  -0.00009  -0.02149  -0.02208  -0.02337  -2.90467
    D6        2.18965  -0.00000  -0.00737  -0.02046  -0.00912   2.18053
    D7       -3.04612  -0.00002  -0.01063  -0.02141  -0.01267  -3.05879
    D8        1.31375  -0.00035  -0.02742  -0.02363  -0.02959   1.28415
    D9        0.10151  -0.00026  -0.01330  -0.02201  -0.01534   0.08617
   D10        2.28596  -0.00003  -0.02155   0.00343  -0.02080   2.26517
   D11       -1.07171  -0.00032  -0.00732  -0.00044  -0.00726  -1.07897
   D12       -1.08863  -0.00022   0.08289  -0.01381   0.08130  -1.00732
   D13        0.20528   0.00030  -0.02707   0.02417  -0.02481   0.18047
   D14        3.13079   0.00000  -0.01285   0.02031  -0.01126   3.11952
   D15        3.11387   0.00010   0.07736   0.00694   0.07730  -3.09201
   D16       -1.86477   0.00021  -0.02388   0.01635  -0.02212  -1.88689
   D17        1.06074  -0.00008  -0.00966   0.01248  -0.00858   1.05216
   D18        1.04383   0.00001   0.08055  -0.00089   0.07998   1.12381
   D19       -1.23027   0.00005   0.00813  -0.00391   0.00798  -1.22229
   D20       -3.12698  -0.00016  -0.01069  -0.00486  -0.01095  -3.13793
   D21        0.01416  -0.00013  -0.00829  -0.00514  -0.00863   0.00553
   D22        2.98367   0.00001   0.00500  -0.00266   0.00485   2.98851
   D23        1.08695  -0.00019  -0.01382  -0.00361  -0.01409   1.07286
   D24       -2.05509  -0.00017  -0.01142  -0.00388  -0.01177  -2.06686
   D25        0.83723   0.00025   0.00612   0.00105   0.00653   0.84376
   D26       -1.05949   0.00005  -0.01270   0.00010  -0.01240  -1.07189
   D27        2.08166   0.00007  -0.01030  -0.00018  -0.01009   2.07157
   D28       -1.99316  -0.00000   0.18412  -0.13631   0.16699  -1.82617
   D29       -0.02249  -0.00025   0.00439  -0.03656   0.00068  -0.02181
   D30       -2.93049  -0.00008  -0.10031  -0.01938  -0.10169  -3.03218
   D31       -2.94748   0.00002  -0.00968  -0.03280  -0.01273  -2.96021
         Item               Value     Threshold  Converged?
 Maximum Force            0.005044     0.000450     NO 
 RMS     Force            0.000835     0.000300     NO 
 Maximum Displacement     0.045622     0.001800     NO 
 RMS     Displacement     0.015861     0.001200     NO 
 Predicted change in Energy=-2.475390D-05
 GradGradGradGradGradGradGradGradGradGradGradGradGradGradGradGradGradGrad

                          Input orientation:                          
 ---------------------------------------------------------------------
 Center     Atomic      Atomic             Coordinates (Angstroms)
 Number     Number       Type             X           Y           Z
 ---------------------------------------------------------------------
      1          6           0       -2.603968    2.565632    2.547142
      2          6           0       -1.163832    4.208560   -0.361682
      3          6           0        1.331795    3.121682   -0.642429
      4          6           0        1.380082    0.934422    2.985171
      5          8           0        0.582695    0.653257    3.778180
      6          8           0        2.177375    1.215554    2.192257
      7         16           0       -0.024430    3.165653    0.546486
      8          1           0       -3.140407    2.072205    1.737590
      9          1           0       -2.700455    3.640067    2.689046
     10          1           0       -1.895909    2.001021    3.155161
     11          1           0       -0.738793    5.208878   -0.542378
     12          1           0       -2.069226    4.304272    0.252001
     13          1           0       -1.438317    3.752115   -1.325133
     14          1           0        2.117634    2.493587   -0.197968
     15          1           0        1.751036    4.120845   -0.837351
     16          1           0        1.012719    2.669248   -1.594093
 ---------------------------------------------------------------------
                    Distance matrix (angstroms):
                    1          2          3          4          5
     1  C    0.000000
     2  C    3.637920   0.000000
     3  C    5.096350   2.736471   0.000000
     4  C    4.327282   5.328499   4.236263   0.000000
     5  O    3.915029   5.729659   5.118208   1.159199   0.000000
     6  O    4.980953   5.161817   3.519059   1.159062   2.318261
     7  S    3.319136   1.791831   1.804106   3.591411   4.138186
     8  H    1.089317   3.588565   5.173633   4.825539   4.476484
     9  H    1.088052   3.462851   5.256090   4.904997   4.570156
    10  H    1.090789   4.216320   5.108389   3.449441   2.889307
    11  H    4.473339   1.101792   2.941723   5.933314   6.416170
    12  H    2.928565   1.097955   3.710184   5.542909   5.726826
    13  H    4.214380   1.100873   2.921822   5.870391   6.303269
    14  H    5.462083   3.706205   1.099815   3.620409   4.642478
    15  H    5.730579   2.954726   1.100947   4.990249   5.890018
    16  H    5.499181   2.936953   1.100986   4.910625   5.754168
                    6          7          8          9         10
     6  O    0.000000
     7  S    3.370371   0.000000
     8  H    5.405495   3.510508   0.000000
     9  H    5.469762   3.460743   1.886006   0.000000
    10  H    4.258613   3.415258   1.887684   1.884418   0.000000
    11  H    5.650567   2.422954   4.561219   4.092846   5.030016
    12  H    5.598070   2.358890   2.887304   2.603614   3.709898
    13  H    5.646184   2.417844   3.885804   4.209416   4.832055
    14  H    2.711110   2.365233   5.618803   5.732648   5.253059
    15  H    4.219124   2.445338   5.895206   5.699333   5.808099
    16  H    4.219727   2.429850   5.357707   5.751124   5.609105
                   11         12         13         14         15
    11  H    0.000000
    12  H    1.794268   0.000000
    13  H    1.795605   1.786134   0.000000
    14  H    3.956084   4.583759   3.936900   0.000000
    15  H    2.733144   3.976774   3.247439   1.786385   0.000000
    16  H    3.259390   3.947119   2.693050   1.789094   1.795801
                   16
    16  H    0.000000
 Stoichiometry    C4H9O2S(2)
 Framework group  C1[X(C4H9O2S)]
 Deg. of freedom    42
 Full point group                 C1      NOp   1
 Largest Abelian subgroup         C1      NOp   1
 Largest concise Abelian subgroup C1      NOp   1
                         Standard orientation:                         
 ---------------------------------------------------------------------
 Center     Atomic      Atomic             Coordinates (Angstroms)
 Number     Number       Type             X           Y           Z
 ---------------------------------------------------------------------
      1          6           0        0.172708   -2.981031    0.101501
      2          6           0        2.720797   -0.391611   -0.089825
      3          6           0        1.368672    1.972422    0.177346
      4          6           0       -2.551287    0.378939   -0.024296
      5          8           0       -3.000152   -0.689058    0.016254
      6          8           0       -2.102474    1.446809   -0.064840
      7         16           0        1.036054    0.218518   -0.083390
      8          1           0        0.638403   -3.068826    1.082334
      9          1           0        0.759633   -3.156397   -0.797734
     10          1           0       -0.854459   -2.624025    0.016095
     11          1           0        3.305387    0.046233   -0.914746
     12          1           0        2.666773   -1.480349   -0.221116
     13          1           0        3.224658   -0.176841    0.865119
     14          1           0        0.391171    2.475683    0.205843
     15          1           0        1.964719    2.411768   -0.637385
     16          1           0        1.882523    2.142152    1.136157
 ---------------------------------------------------------------------
 Rotational constants (GHZ):           2.0146367           1.0499576           0.7019569
 Standard basis: SVP (5D, 7F)
 There are   154 symmetry adapted cartesian basis functions of A   symmetry.
 There are   147 symmetry adapted basis functions of A   symmetry.
   147 basis functions,   250 primitive gaussians,   154 cartesian basis functions
    33 alpha electrons       32 beta electrons
       nuclear repulsion energy       339.8495240247 Hartrees.
 NAtoms=   16 NActive=   16 NUniq=   16 SFac= 1.00D+00 NAtFMM=   60 NAOKFM=F Big=F
 Integral buffers will be    131072 words long.
 Raffenetti 2 integral format.
 Two-electron integral symmetry is turned on.
 Nuclear repulsion after empirical dispersion term =      339.8393220564 Hartrees.
 One-electron integrals computed using PRISM.
 NBasis=   147 RedAO= T EigKep=  7.69D-03  NBF=   147
 NBsUse=   147 1.00D-06 EigRej= -1.00D+00 NBFU=   147
 Initial guess from the checkpoint file:  "305_trj10_frag1.chk"
 B after Tr=     0.000000    0.000000    0.000000
         Rot=    0.999998   -0.000033   -0.000079    0.002156 Ang=  -0.25 deg.
 Initial guess <Sx>= 0.0000 <Sy>= 0.0000 <Sz>= 0.5000 <S**2>= 0.7544 S= 0.5022
 ExpMin= 1.22D-01 ExpMax= 9.18D+03 ExpMxC= 1.38D+03 IAcc=2 IRadAn=         4 AccDes= 0.00D+00
 Harris functional with IExCor= 1009 and IRadAn=       4 diagonalized for initial guess.
 HarFok:  IExCor= 1009 AccDes= 0.00D+00 IRadAn=         4 IDoV= 1 UseB2=F ITyADJ=14
 ICtDFT=  3500011 ScaDFX=  1.000000  1.000000  1.000000  1.000000
 FoFCou: FMM=F IPFlag=           0 FMFlag=      100000 FMFlg1=           0
         NFxFlg=           0 DoJE=T BraDBF=F KetDBF=T FulRan=T
         wScrn=  0.000000 ICntrl=       500 IOpCl=  0 I1Cent=   200000004 NGrid=           0
         NMat0=    1 NMatS0=      1 NMatT0=    0 NMatD0=    1 NMtDS0=    0 NMtDT0=    0
 Petite list used in FoFCou.
 Requested convergence on RMS density matrix=1.00D-08 within  32 cycles.
 Requested convergence on MAX density matrix=1.00D-06.
 Requested convergence on             energy=1.00D-06.
 No special actions if energy rises.
 Integral accuracy reduced to 1.0D-05 until final iterations.
 Initial convergence to 1.0D-05 achieved.  Increase integral accuracy.
 SCF Done:  E(UPBE1PBE) =  -705.597154363     A.U. after   12 cycles
            NFock= 12  Conv=0.37D-08     -V/T= 2.0051
 <Sx>= 0.0000 <Sy>= 0.0000 <Sz>= 0.5000 <S**2>= 0.7544 S= 0.5022
 <L.S>=  0.00000000000    
 Annihilation of the first spin contaminant:
 S**2 before annihilation     0.7544,   after     0.7500
 QCSCF skips out because SCF is already converged.
 Calling FoFJK, ICntrl=      2127 FMM=F ISym2X=0 I1Cent= 0 IOpClX= 1 NMat=1 NMatS=1 NMatT=0.
 ***** Axes restored to original set *****
 -------------------------------------------------------------------
 Center     Atomic                   Forces (Hartrees/Bohr)
 Number     Number              X              Y              Z
 -------------------------------------------------------------------
      1        6           0.001484827   -0.001500571    0.000429257
      2        6          -0.002190633    0.001568043   -0.001896005
      3        6           0.001525324   -0.002330304    0.000985322
      4        6          -0.002452578    0.001553907   -0.000966547
      5        8           0.000346169   -0.000106250    0.000082776
      6        8           0.001403501   -0.000581696   -0.000166771
      7       16           0.004451786   -0.001515022    0.001004379
      8        1          -0.000543627   -0.000453918   -0.000225669
      9        1          -0.000631490    0.001695589    0.000754228
     10        1          -0.000411198   -0.000043016   -0.000255133
     11        1          -0.000761383   -0.000160631    0.000497739
     12        1          -0.000350426    0.000845277   -0.000262963
     13        1          -0.000583396    0.000154859   -0.000278501
     14        1          -0.000496304    0.000269944   -0.000349678
     15        1          -0.000846770    0.000702116    0.000781227
     16        1           0.000056199   -0.000098328   -0.000133659
 -------------------------------------------------------------------
 Cartesian Forces:  Max     0.004451786 RMS     0.001192918

 GradGradGradGradGradGradGradGradGradGradGradGradGradGradGradGradGradGrad
 Berny optimization.
 Using GEDIIS/GDIIS optimizer.
 Bend failed for angle     5 -     4 -     6
 Tors failed for dihedral     5 -     4 -     6 -     7
 FormBX had a problem.
 Error termination via Lnk1e in /share/apps/g16/l103.exe at Tue Feb 23 02:11:14 2021.
 Job cpu time:       0 days  0 hours 49 minutes  6.8 seconds.
 Elapsed time:       0 days  0 hours  6 minutes 10.5 seconds.
 File lengths (MBytes):  RWF=     27 Int=      0 D2E=      0 Chk=      4 Scr=      1
