 Entering Gaussian System, Link 0=g16
 Input=trj499full_hp.com
 Output=trj499full_hp.log
 Initial command:
 /share/apps/g16/l1.exe "/scratch/Gau-12183.inp" -scrdir="/scratch/"
 Entering Link 1 = /share/apps/g16/l1.exe PID=     12187.
  
 Copyright (c) 1988,1990,1992,1993,1995,1998,2003,2009,2016,
            Gaussian, Inc.  All Rights Reserved.
  
 This is part of the Gaussian(R) 16 program.  It is based on
 the Gaussian(R) 09 system (copyright 2009, Gaussian, Inc.),
 the Gaussian(R) 03 system (copyright 2003, Gaussian, Inc.),
 the Gaussian(R) 98 system (copyright 1998, Gaussian, Inc.),
 the Gaussian(R) 94 system (copyright 1995, Gaussian, Inc.),
 the Gaussian 92(TM) system (copyright 1992, Gaussian, Inc.),
 the Gaussian 90(TM) system (copyright 1990, Gaussian, Inc.),
 the Gaussian 88(TM) system (copyright 1988, Gaussian, Inc.),
 the Gaussian 86(TM) system (copyright 1986, Carnegie Mellon
 University), and the Gaussian 82(TM) system (copyright 1983,
 Carnegie Mellon University). Gaussian is a federally registered
 trademark of Gaussian, Inc.
  
 This software contains proprietary and confidential information,
 including trade secrets, belonging to Gaussian, Inc.
  
 This software is provided under written license and may be
 used, copied, transmitted, or stored only in accord with that
 written license.
  
 The following legend is applicable only to US Government
 contracts under FAR:
  
                    RESTRICTED RIGHTS LEGEND
  
 Use, reproduction and disclosure by the US Government is
 subject to restrictions as set forth in subparagraphs (a)
 and (c) of the Commercial Computer Software - Restricted
 Rights clause in FAR 52.227-19.
  
 Gaussian, Inc.
 340 Quinnipiac St., Bldg. 40, Wallingford CT 06492
  
  
 ---------------------------------------------------------------
 Warning -- This program may not be used in any manner that
 competes with the business of Gaussian, Inc. or will provide
 assistance to any competitor of Gaussian, Inc.  The licensee
 of this program is prohibited from giving any competitor of
 Gaussian, Inc. access to this program.  By using this program,
 the user acknowledges that Gaussian, Inc. is engaged in the
 business of creating and licensing software in the field of
 computational chemistry and represents and warrants to the
 licensee that it is not a competitor of Gaussian, Inc. and that
 it will not use this program in any manner prohibited above.
 ---------------------------------------------------------------
  

 Cite this work as:
 Gaussian 16, Revision A.03,
 M. J. Frisch, G. W. Trucks, H. B. Schlegel, G. E. Scuseria, 
 M. A. Robb, J. R. Cheeseman, G. Scalmani, V. Barone, 
 G. A. Petersson, H. Nakatsuji, X. Li, M. Caricato, A. V. Marenich, 
 J. Bloino, B. G. Janesko, R. Gomperts, B. Mennucci, H. P. Hratchian, 
 J. V. Ortiz, A. F. Izmaylov, J. L. Sonnenberg, D. Williams-Young, 
 F. Ding, F. Lipparini, F. Egidi, J. Goings, B. Peng, A. Petrone, 
 T. Henderson, D. Ranasinghe, V. G. Zakrzewski, J. Gao, N. Rega, 
 G. Zheng, W. Liang, M. Hada, M. Ehara, K. Toyota, R. Fukuda, 
 J. Hasegawa, M. Ishida, T. Nakajima, Y. Honda, O. Kitao, H. Nakai, 
 T. Vreven, K. Throssell, J. A. Montgomery, Jr., J. E. Peralta, 
 F. Ogliaro, M. J. Bearpark, J. J. Heyd, E. N. Brothers, K. N. Kudin, 
 V. N. Staroverov, T. A. Keith, R. Kobayashi, J. Normand, 
 K. Raghavachari, A. P. Rendell, J. C. Burant, S. S. Iyengar, 
 J. Tomasi, M. Cossi, J. M. Millam, M. Klene, C. Adamo, R. Cammi, 
 J. W. Ochterski, R. L. Martin, K. Morokuma, O. Farkas, 
 J. B. Foresman, and D. J. Fox, Gaussian, Inc., Wallingford CT, 2016.
 
 ******************************************
 Gaussian 16:  ES64L-G16RevA.03 25-Dec-2016
                24-Feb-2021 
 ******************************************
 %nprocshared=8
 Will use up to    8 processors via shared memory.
 %mem=4000MB
 %chk=305_73scan.chk
 ---------------------------------------------------------
 # freq=hpmodes em=gd3bj int=ultrafine pbe1pbe scf=xqc svp
 ---------------------------------------------------------
 1/10=4,30=1,38=1/1,3;
 2/12=2,17=6,18=5,40=1/2;
 3/5=18,7=101,11=2,25=1,30=1,71=2,74=-13,75=-5,124=41,140=1/1,2,3;
 4//1;
 5/5=2,8=3,13=1,38=5,98=1/2,8;
 8/6=4,10=90,11=11/1;
 11/6=1,8=1,9=11,15=111,16=1/1,2,10;
 10/6=1/2;
 6/7=2,8=2,9=2,10=2,28=1/1;
 7/8=11,10=1,25=1/1,2,3,16;
 1/10=4,30=1/3;
 99//99;
 -------------------
 Title Card Required
 -------------------
 Symbolic Z-matrix:
 Charge =  1 Multiplicity = 2
 C                    -1.50902   7.8517    0.36953 
 C                    -2.19345   8.95658  -1.72794 
 C                     1.58198   4.81891  -2.03234 
 C                     4.43437   5.86438  -1.19661 
 C                     2.22488   5.54609   1.12867 
 C                     0.03389   9.73348  -0.6809 
 C                    -0.99589   8.5343   -0.92886 
 C                     1.36638   9.23158  -0.17623 
 C                     2.08561   8.50791  -1.29839 
 N                     2.21879   10.36053   0.34365 
 O                     2.77568   9.02333  -2.13276 
 O                     2.01654   7.22105  -1.1387 
 Si                    2.63718   5.78131  -0.80447 
 H                    -1.84847   8.71588   0.93664 
 H                    -0.55853   7.44659   0.81579 
 H                    -2.2744    7.07815   0.3817 
 H                    -2.87025   9.63944  -1.21306 
 H                    -2.7959    7.96451  -1.79149 
 H                    -1.9279    9.49474  -2.60532 
 H                     1.67347   5.28033  -3.11275 
 H                     0.5327    5.04244  -1.73828 
 H                     1.65163   3.7498   -2.12438 
 H                     4.82879   6.70022  -1.87205 
 H                     4.45342   5.13171  -1.91289 
 H                     5.16495   5.71203  -0.36183 
 H                     2.72132   4.70347   1.69015 
 H                     1.19785   5.30695   1.05673 
 H                     2.49683   6.45202   1.68426 
 H                    -0.3092    10.51017  -0.0029 
 H                     0.10948   10.15932  -1.74068 
 H                    -0.41696   7.8235   -1.45042 
 H                     1.33792   8.40791   0.54817 
 H                     2.69106   10.75293  -0.41301 
 H                     3.01393   10.09885   0.97513 
 

 GradGradGradGradGradGradGradGradGradGradGradGradGradGradGradGradGradGrad
 Berny optimization.
 Initialization pass.
 Trust Radius=3.00D-01 FncErr=1.00D-07 GrdErr=1.00D-07 EigMax=2.50D+02 EigMin=1.00D-04
 Number of steps in this run=      2 maximum allowed number of steps=      2.
 GradGradGradGradGradGradGradGradGradGradGradGradGradGradGradGradGradGrad

                          Input orientation:                          
 ---------------------------------------------------------------------
 Center     Atomic      Atomic             Coordinates (Angstroms)
 Number     Number       Type             X           Y           Z
 ---------------------------------------------------------------------
      1          6           0       -1.509021    7.851704    0.369531
      2          6           0       -2.193453    8.956575   -1.727939
      3          6           0        1.581982    4.818911   -2.032341
      4          6           0        4.434372    5.864382   -1.196611
      5          6           0        2.224881    5.546086    1.128668
      6          6           0        0.033891    9.733475   -0.680904
      7          6           0       -0.995888    8.534305   -0.928864
      8          6           0        1.366379    9.231578   -0.176234
      9          6           0        2.085612    8.507905   -1.298389
     10          7           0        2.218786   10.360531    0.343645
     11          8           0        2.775684    9.023328   -2.132757
     12          8           0        2.016544    7.221051   -1.138695
     13         14           0        2.637182    5.781311   -0.804465
     14          1           0       -1.848470    8.715875    0.936636
     15          1           0       -0.558530    7.446587    0.815793
     16          1           0       -2.274395    7.078152    0.381697
     17          1           0       -2.870252    9.639435   -1.213062
     18          1           0       -2.795900    7.964507   -1.791485
     19          1           0       -1.927895    9.494743   -2.605322
     20          1           0        1.673469    5.280331   -3.112750
     21          1           0        0.532702    5.042445   -1.738283
     22          1           0        1.651633    3.749803   -2.124376
     23          1           0        4.828786    6.700222   -1.872053
     24          1           0        4.453420    5.131706   -1.912885
     25          1           0        5.164953    5.712029   -0.361829
     26          1           0        2.721316    4.703470    1.690146
     27          1           0        1.197848    5.306950    1.056733
     28          1           0        2.496827    6.452020    1.684260
     29          1           0       -0.309195   10.510174   -0.002899
     30          1           0        0.109477   10.159318   -1.740676
     31          1           0       -0.416962    7.823505   -1.450423
     32          1           0        1.337916    8.407907    0.548165
     33          1           0        2.691062   10.752932   -0.413012
     34          1           0        3.013927   10.098852    0.975132
 ---------------------------------------------------------------------
                    Distance matrix (angstroms):
                    1          2          3          4          5
     1  C    0.000000
     2  C    2.467502   0.000000
     3  C    4.951881   5.609531   0.000000
     4  C    6.459580   7.332942   3.150807   0.000000
     5  C    4.453559   6.270033   3.306672   3.223366   0.000000
     6  C    2.650482   2.580875   5.326904   5.882182   5.060555
     7  C    1.554053   1.500332   4.654807   6.057054   4.851417
     8  C    3.235713   3.893048   4.791998   4.668164   4.002830
     9  C    4.016708   4.323912   3.794866   3.537689   3.831759
    10  N    4.493487   5.072515   6.063034   5.243717   4.878030
    11  O    5.098318   4.986046   4.371742   3.688706   4.799113
    12  O    3.886139   4.591658   2.599562   2.773048   2.826632
    13  Si   4.780773   5.854070   1.883438   1.841350   1.990559
    14  H    1.087945   2.697575   5.980732   7.221901   5.164942
    15  H    1.125479   3.379883   4.427001   5.610901   3.384844
    16  H    1.088268   2.825878   5.079704   6.997989   4.811307
    17  H    2.748369   1.090620   6.612946   8.222459   6.942592
    18  H    2.517692   1.162402   5.396169   7.552565   6.291605
    19  H    3.424147   1.062990   5.874602   7.459385   6.839600
    20  H    5.372754   5.512310   1.178373   3.411054   4.285360
    21  H    4.062444   4.769952   1.112397   4.023931   3.366977
    22  H    5.747599   6.484776   1.075320   3.616052   3.759992
    23  H    6.820440   7.377245   3.755897   1.144733   4.137231
    24  H    6.939634   7.671033   2.890894   1.024805   3.793302
    25  H    7.046632   8.157173   4.052894   1.119741   3.300476
    26  H    5.436097   7.343512   3.894652   3.551851   1.127700
    27  H    3.778248   5.707459   3.150892   3.982886   1.056957
    28  H    4.442347   6.317802   4.161383   3.521195   1.096975
    29  H    2.940366   2.989960   6.331324   6.746092   5.687192
    30  H    3.521021   2.598122   5.547368   6.119412   5.830093
    31  H    2.122645   2.125272   3.655406   5.238132   4.337935
    32  H    2.906256   4.237010   4.427129   4.370561   3.051837
    33  H    5.164319   5.367906   6.250191   5.248912   5.450261
    34  H    5.086599   5.977307   6.242847   4.966374   4.623186
                    6          7          8          9         10
     6  C    0.000000
     7  C    1.599981   0.000000
     8  C    1.510668   2.575451   0.000000
     9  C    2.468374   3.103689   1.516651   0.000000
    10  N    2.493324   3.910052   1.507119   2.479160   0.000000
    11  O    3.182706   3.989142   2.420225   1.199179   2.868940
    12  O    3.233073   3.292934   2.321910   1.298563   3.477725
    13  Si   4.734131   4.560005   3.730142   2.825333   4.739459
    14  H    2.682392   2.059115   3.440884   4.529414   4.427087
    15  H    2.796591   2.101961   2.806347   3.547908   4.053082
    16  H    3.675329   2.339344   4.266587   4.886363   5.564543
    17  H    2.953994   2.194384   4.380685   5.084115   5.370440
    18  H    3.517152   2.075772   4.641020   4.936353   5.953720
    19  H    2.758438   2.145132   4.101459   4.334762   5.161488
    20  H    5.332221   4.741642   4.932523   3.725453   6.168668
    21  H    4.834524   3.896772   4.547950   3.822885   5.954775
    22  H    6.364356   5.597328   5.824645   4.848724   7.079161
    23  H    5.797454   6.179020   4.612139   3.334938   5.011914
    24  H    6.498176   6.499303   5.418000   4.169273   6.117690
    25  H    6.526993   6.800201   5.181779   4.263380   5.548528
    26  H    6.176170   5.945765   5.081633   4.879466   5.836775
    27  H    4.895743   4.378458   4.117198   4.071957   5.204756
    28  H    4.735821   4.833569   3.530622   3.645813   4.141378
    29  H    1.086582   2.287579   2.114805   3.379715   2.556007
    30  H    1.144628   2.126391   2.210878   2.613024   2.972216
    31  H    2.107941   1.054711   2.605097   2.598922   4.074598
    32  H    2.228951   2.764820   1.097268   1.994696   2.151860
    33  H    2.858604   4.333822   2.031100   2.488093   0.974450
    34  H    3.428786   4.706551   2.189114   2.926052   1.048571
                   11         12         13         14         15
    11  O    0.000000
    12  O    2.193776   0.000000
    13  Si   3.506311   1.603045   0.000000
    14  H    5.558642   4.634634   5.635971   0.000000
    15  H    4.721974   3.240663   3.951070   1.813737   0.000000
    16  H    5.967368   4.554577   5.216547   1.780872   1.807865
    17  H    5.753435   5.452970   6.736757   2.553077   3.777419
    18  H    5.681559   4.913093   5.937923   2.984095   3.474473
    19  H    4.750706   4.783228   6.154071   3.627452   4.215938
    20  H    4.023095   2.789442   2.551059   6.372169   5.010782
    21  H    4.586285   2.703260   2.418011   5.130230   3.673417
    22  H    5.391997   3.626884   2.615434   6.803116   5.214943
    23  H    3.111272   2.952589   2.605239   7.519132   6.066692
    24  H    4.243567   3.301984   2.224703   7.789728   6.158247
    25  H    4.450786   3.576751   2.567168   7.739328   6.095387
    26  H    5.768771   3.851916   2.718806   6.127815   4.364238
    27  H    5.145277   3.025550   2.400158   4.573319   2.778662
    28  H    4.610749   2.964988   2.581337   4.956368   3.328454
    29  H    4.032801   4.185382   5.629013   2.543934   3.180879
    30  H    2.924527   3.554251   5.141277   3.617331   3.786909
    31  H    3.478239   2.526277   3.730364   2.922942   2.301705
    32  H    3.103750   2.171327   3.227492   3.224719   2.142958
    33  H    2.440536   3.668211   4.987299   5.155434   4.796012
    34  H    3.297345   3.707395   4.685089   5.055394   4.452230
                   16         17         18         19         20
    16  H    0.000000
    17  H    3.075463   0.000000
    18  H    2.404228   1.773552   0.000000
    19  H    3.857753   1.687412   1.938398   0.000000
    20  H    5.570364   6.576930   5.378271   5.566738   0.000000
    21  H    4.064260   5.743542   4.429545   5.160354   1.801971
    22  H    5.724684   7.481023   6.136375   6.785917   1.822053
    23  H    7.461729   8.267311   7.729214   7.348454   3.675792
    24  H    7.370024   8.628183   7.784095   7.761233   3.031484
    25  H    7.600199   8.984077   8.395996   8.345698   4.465914
    26  H    5.684037   8.003624   7.293544   7.938672   4.949602
    27  H    3.955920   6.361748   5.578976   6.381107   4.196607
    28  H    4.985306   6.881833   6.510098   6.872906   5.006204
    29  H    3.973500   2.963392   3.982859   3.228606   6.399483
    30  H    4.436316   3.070414   3.641565   2.310878   5.304071
    31  H    2.713351   3.061466   2.407395   2.531748   3.687949
    32  H    3.852889   4.725173   4.770639   4.668106   4.826658
    33  H    6.228269   5.727842   6.307317   5.265361   6.186553
    34  H    6.119080   6.294666   6.779652   6.132390   6.459547
                   21         22         23         24         25
    21  H    0.000000
    22  H    1.752712   0.000000
    23  H    4.606784   4.343149   0.000000
    24  H    3.925619   3.131197   1.613322   0.000000
    25  H    4.878598   4.393213   1.835840   1.802451   0.000000
    26  H    4.081551   4.074835   4.595401   4.020622   3.346514
    27  H    2.885220   3.570726   4.868542   4.409999   4.232532
    28  H    4.190285   4.745739   4.259929   4.302434   3.442813
    29  H    5.797966   7.351743   6.663957   7.433604   7.288163
    30  H    5.134347   6.603586   5.852733   6.646531   6.872950
    31  H    2.952799   4.618262   5.381209   5.583930   6.066395
    32  H    4.147596   5.379482   4.578189   5.147487   4.768864
    33  H    6.246961   7.283749   4.808651   6.078956   5.615466
    34  H    6.251908   7.195361   4.790706   5.923286   5.065431
                   26         27         28         29         30
    26  H    0.000000
    27  H    1.756802   0.000000
    28  H    1.762912   1.841826   0.000000
    29  H    6.765221   5.519741   5.214296   0.000000
    30  H    6.954029   5.705745   5.583340   1.821608   0.000000
    31  H    5.426470   3.902114   4.494149   3.053708   2.411930
    32  H    4.115917   3.145504   2.541511   2.726935   3.132937
    33  H    6.404700   5.835114   4.788958   3.037872   2.963047
    34  H    5.450414   5.125146   3.750952   3.488391   3.976820
                   31         32         33         34
    31  H    0.000000
    32  H    2.723137   0.000000
    33  H    4.395177   2.872979   0.000000
    34  H    4.778234   2.418803   1.568122   0.000000
 Stoichiometry    C9H21NO2Si(1+,2)
 Framework group  C1[X(C9H21NO2Si)]
 Deg. of freedom    96
 Full point group                 C1      NOp   1
 Largest Abelian subgroup         C1      NOp   1
 Largest concise Abelian subgroup C1      NOp   1
                         Standard orientation:                         
 ---------------------------------------------------------------------
 Center     Atomic      Atomic             Coordinates (Angstroms)
 Number     Number       Type             X           Y           Z
 ---------------------------------------------------------------------
      1          6           0       -2.344917   -1.671928    1.126497
      2          6           0       -3.519737   -1.361654   -1.021082
      3          6           0        2.051624   -2.006231   -1.127342
      4          6           0        3.488779    0.684156   -0.337413
      5          6           0        1.958869   -0.927979    1.997214
      6          6           0       -2.384067    0.722968   -0.008402
      7          6           0       -2.365192   -0.865193   -0.201602
      8          6           0       -1.066248    1.238067    0.520883
      9          6           0       -0.013616    1.127454   -0.565377
     10          7           0       -1.181316    2.666099    0.988741
     11          8           0        0.194539    1.940487   -1.421928
     12          8           0        0.774025    0.118613   -0.345997
     13         14           0        2.176347   -0.546087    0.055774
     14          1           0       -3.185978   -1.224936    1.652272
     15          1           0       -1.376697   -1.337009    1.592418
     16          1           0       -2.414379   -2.756953    1.173664
     17          1           0       -4.494390   -1.274674   -0.539483
     18          1           0       -3.320561   -2.506723   -1.039146
     19          1           0       -3.645114   -0.811962   -1.922229
     20          1           0        1.851849   -1.635676   -2.227951
     21          1           0        1.104733   -2.517449   -0.845420
     22          1           0        2.808842   -2.768575   -1.169376
     23          1           0        3.258730    1.549574   -1.050534
     24          1           0        4.006748    0.120495   -1.018750
     25          1           0        4.113037    1.078165    0.504536
     26          1           0        2.868412   -1.216931    2.598001
     27          1           0        1.344038   -1.785466    1.935125
     28          1           0        1.551572   -0.048125    2.510360
     29          1           0       -3.173956    1.105505    0.632223
     30          1           0       -2.573125    1.056992   -1.086760
     31          1           0       -1.445755   -1.037762   -0.688706
     32          1           0       -0.569915    0.623992    1.282830
     33          1           0       -1.059017    3.246028    0.215257
     34          1           0       -0.430202    3.013262    1.632796
 ---------------------------------------------------------------------
 Rotational constants (GHZ):           0.8458794           0.4538761           0.3810521
 Standard basis: SVP (5D, 7F)
 There are   304 symmetry adapted cartesian basis functions of A   symmetry.
 There are   291 symmetry adapted basis functions of A   symmetry.
   291 basis functions,   484 primitive gaussians,   304 cartesian basis functions
    56 alpha electrons       55 beta electrons
       nuclear repulsion energy      1001.8826476924 Hartrees.
 NAtoms=   34 NActive=   34 NUniq=   34 SFac= 1.00D+00 NAtFMM=   60 NAOKFM=F Big=F
 Integral buffers will be    131072 words long.
 Raffenetti 2 integral format.
 Two-electron integral symmetry is turned on.
 Nuclear repulsion after empirical dispersion term =     1001.8510300492 Hartrees.
 One-electron integrals computed using PRISM.
 NBasis=   291 RedAO= T EigKep=  1.20D-03  NBF=   291
 NBsUse=   291 1.00D-06 EigRej= -1.00D+00 NBFU=   291
 ExpMin= 7.80D-02 ExpMax= 6.90D+03 ExpMxC= 1.04D+03 IAcc=3 IRadAn=         5 AccDes= 0.00D+00
 Harris functional with IExCor= 1009 and IRadAn=       5 diagonalized for initial guess.
 HarFok:  IExCor= 1009 AccDes= 0.00D+00 IRadAn=         5 IDoV= 1 UseB2=F ITyADJ=14
 ICtDFT=  3500011 ScaDFX=  1.000000  1.000000  1.000000  1.000000
 FoFCou: FMM=F IPFlag=           0 FMFlag=      100000 FMFlg1=           0
         NFxFlg=           0 DoJE=T BraDBF=F KetDBF=T FulRan=T
         wScrn=  0.000000 ICntrl=       500 IOpCl=  0 I1Cent=   200000004 NGrid=           0
         NMat0=    1 NMatS0=      1 NMatT0=    0 NMatD0=    1 NMtDS0=    0 NMtDT0=    0
 Petite list used in FoFCou.
 Initial guess <Sx>= 0.0000 <Sy>= 0.0000 <Sz>= 0.5000 <S**2>= 0.7500 S= 0.5000
 Requested convergence on RMS density matrix=1.00D-08 within  32 cycles.
 Requested convergence on MAX density matrix=1.00D-06.
 Requested convergence on             energy=1.00D-06.
 No special actions if energy rises.
 Integral accuracy reduced to 1.0D-05 until final iterations.
 Failed to achieve initial convergence to 1.0D-08 in 10 cycles.
 Switch to full accuracy anyway.
 SCF Done:  E(UPBE1PBE) =  -848.740668219     A.U. after   22 cycles
            NFock= 22  Conv=0.45D-08     -V/T= 2.0076
 <Sx>= 0.0000 <Sy>= 0.0000 <Sz>= 0.5000 <S**2>= 0.7549 S= 0.5024
 <L.S>=  0.00000000000    
 Annihilation of the first spin contaminant:
 S**2 before annihilation     0.7549,   after     0.7500
 QCSCF skips out because SCF is already converged.
 DoSCS=F DFT=T ScalE2(SS,OS)=  1.000000  1.000000
 Range of M.O.s used for correlation:     1   291
 NBasis=   291 NAE=    56 NBE=    55 NFC=     0 NFV=     0
 NROrb=    291 NOA=    56 NOB=    55 NVA=   235 NVB=   236

 **** Warning!!: The smallest beta delta epsilon is  0.47184479D-01

 Symmetrizing basis deriv contribution to polar:
 IMax=3 JMax=2 DiffMx= 0.00D+00
 G2DrvN: will do    35 centers at a time, making    1 passes.
 Calling FoFCou, ICntrl=  3107 FMM=F I1Cent=   0 AccDes= 0.00D+00.
 End of G2Drv F.D. properties file   721 does not exist.
 End of G2Drv F.D. properties file   722 does not exist.
 End of G2Drv F.D. properties file   788 does not exist.
          IDoAtm=1111111111111111111111111111111111
          Differentiating once with respect to electric field.
                with respect to dipole field.
          Differentiating once with respect to nuclear coordinates.
 CalDSu exits because no D1Ps are significant.
          There are   105 degrees of freedom in the 1st order CPHF.  IDoFFX=6 NUNeed=     3.
    102 vectors produced by pass  0 Test12= 2.61D-14 1.00D-09 XBig12= 2.73D+03 4.85D+01.
 AX will form   102 AO Fock derivatives at one time.
    102 vectors produced by pass  1 Test12= 2.61D-14 1.00D-09 XBig12= 3.10D+02 2.26D+00.
    102 vectors produced by pass  2 Test12= 2.61D-14 1.00D-09 XBig12= 1.01D+01 8.66D-01.
    102 vectors produced by pass  3 Test12= 2.61D-14 1.00D-09 XBig12= 9.04D-02 2.56D-02.
    102 vectors produced by pass  4 Test12= 2.61D-14 1.00D-09 XBig12= 6.40D-04 2.34D-03.
    102 vectors produced by pass  5 Test12= 2.61D-14 1.00D-09 XBig12= 2.33D-06 8.97D-05.
     49 vectors produced by pass  6 Test12= 2.61D-14 1.00D-09 XBig12= 6.45D-09 4.79D-06.
      9 vectors produced by pass  7 Test12= 2.61D-14 1.00D-09 XBig12= 2.28D-11 2.50D-07.
      3 vectors produced by pass  8 Test12= 2.61D-14 1.00D-09 XBig12= 7.74D-14 1.60D-08.
      1 vectors produced by pass  9 Test12= 2.61D-14 1.00D-09 XBig12= 3.90D-16 1.39D-09.
 InvSVY:  IOpt=1 It=  1 EMax= 3.55D-14
 Solved reduced A of dimension   674 with   105 vectors.
 Isotropic polarizability for W=    0.000000      231.03 Bohr**3.
 End of Minotr F.D. properties file   721 does not exist.
 End of Minotr F.D. properties file   722 does not exist.
 End of Minotr F.D. properties file   788 does not exist.

 **********************************************************************

            Population analysis using the SCF density.

 **********************************************************************

 Orbital symmetries:
 Alpha Orbitals:
       Occupied  (A) (A) (A) (A) (A) (A) (A) (A) (A) (A) (A) (A)
                 (A) (A) (A) (A) (A) (A) (A) (A) (A) (A) (A) (A)
                 (A) (A) (A) (A) (A) (A) (A) (A) (A) (A) (A) (A)
                 (A) (A) (A) (A) (A) (A) (A) (A) (A) (A) (A) (A)
                 (A) (A) (A) (A) (A) (A) (A) (A)
       Virtual   (A) (A) (A) (A) (A) (A) (A) (A) (A) (A) (A) (A)
                 (A) (A) (A) (A) (A) (A) (A) (A) (A) (A) (A) (A)
                 (A) (A) (A) (A) (A) (A) (A) (A) (A) (A) (A) (A)
                 (A) (A) (A) (A) (A) (A) (A) (A) (A) (A) (A) (A)
                 (A) (A) (A) (A) (A) (A) (A) (A) (A) (A) (A) (A)
                 (A) (A) (A) (A) (A) (A) (A) (A) (A) (A) (A) (A)
                 (A) (A) (A) (A) (A) (A) (A) (A) (A) (A) (A) (A)
                 (A) (A) (A) (A) (A) (A) (A) (A) (A) (A) (A) (A)
                 (A) (A) (A) (A) (A) (A) (A) (A) (A) (A) (A) (A)
                 (A) (A) (A) (A) (A) (A) (A) (A) (A) (A) (A) (A)
                 (A) (A) (A) (A) (A) (A) (A) (A) (A) (A) (A) (A)
                 (A) (A) (A) (A) (A) (A) (A) (A) (A) (A) (A) (A)
                 (A) (A) (A) (A) (A) (A) (A) (A) (A) (A) (A) (A)
                 (A) (A) (A) (A) (A) (A) (A) (A) (A) (A) (A) (A)
                 (A) (A) (A) (A) (A) (A) (A) (A) (A) (A) (A) (A)
                 (A) (A) (A) (A) (A) (A) (A) (A) (A) (A) (A) (A)
                 (A) (A) (A) (A) (A) (A) (A) (A) (A) (A) (A) (A)
                 (A) (A) (A) (A) (A) (A) (A) (A) (A) (A) (A) (A)
                 (A) (A) (A) (A) (A) (A) (A) (A) (A) (A) (A) (A)
                 (A) (A) (A) (A) (A) (A) (A)
 Beta  Orbitals:
       Occupied  (A) (A) (A) (A) (A) (A) (A) (A) (A) (A) (A) (A)
                 (A) (A) (A) (A) (A) (A) (A) (A) (A) (A) (A) (A)
                 (A) (A) (A) (A) (A) (A) (A) (A) (A) (A) (A) (A)
                 (A) (A) (A) (A) (A) (A) (A) (A) (A) (A) (A) (A)
                 (A) (A) (A) (A) (A) (A) (A)
       Virtual   (A) (A) (A) (A) (A) (A) (A) (A) (A) (A) (A) (A)
                 (A) (A) (A) (A) (A) (A) (A) (A) (A) (A) (A) (A)
                 (A) (A) (A) (A) (A) (A) (A) (A) (A) (A) (A) (A)
                 (A) (A) (A) (A) (A) (A) (A) (A) (A) (A) (A) (A)
                 (A) (A) (A) (A) (A) (A) (A) (A) (A) (A) (A) (A)
                 (A) (A) (A) (A) (A) (A) (A) (A) (A) (A) (A) (A)
                 (A) (A) (A) (A) (A) (A) (A) (A) (A) (A) (A) (A)
                 (A) (A) (A) (A) (A) (A) (A) (A) (A) (A) (A) (A)
                 (A) (A) (A) (A) (A) (A) (A) (A) (A) (A) (A) (A)
                 (A) (A) (A) (A) (A) (A) (A) (A) (A) (A) (A) (A)
                 (A) (A) (A) (A) (A) (A) (A) (A) (A) (A) (A) (A)
                 (A) (A) (A) (A) (A) (A) (A) (A) (A) (A) (A) (A)
                 (A) (A) (A) (A) (A) (A) (A) (A) (A) (A) (A) (A)
                 (A) (A) (A) (A) (A) (A) (A) (A) (A) (A) (A) (A)
                 (A) (A) (A) (A) (A) (A) (A) (A) (A) (A) (A) (A)
                 (A) (A) (A) (A) (A) (A) (A) (A) (A) (A) (A) (A)
                 (A) (A) (A) (A) (A) (A) (A) (A) (A) (A) (A) (A)
                 (A) (A) (A) (A) (A) (A) (A) (A) (A) (A) (A) (A)
                 (A) (A) (A) (A) (A) (A) (A) (A) (A) (A) (A) (A)
                 (A) (A) (A) (A) (A) (A) (A) (A)
 The electronic state is 2-A.
 Alpha  occ. eigenvalues --  -66.41714 -19.41726 -19.38359 -14.65389 -10.55434
 Alpha  occ. eigenvalues --  -10.48112 -10.40640 -10.37772 -10.36791 -10.35684
 Alpha  occ. eigenvalues --  -10.35008 -10.34594 -10.34125  -5.50320  -3.84483
 Alpha  occ. eigenvalues --   -3.83921  -3.83775  -1.30935  -1.21800  -1.14490
 Alpha  occ. eigenvalues --   -0.99276  -0.93506  -0.88982  -0.84535  -0.83868
 Alpha  occ. eigenvalues --   -0.82679  -0.81803  -0.80327  -0.74818  -0.73736
 Alpha  occ. eigenvalues --   -0.69712  -0.67497  -0.67102  -0.63554  -0.60947
 Alpha  occ. eigenvalues --   -0.59748  -0.58869  -0.58626  -0.57612  -0.57019
 Alpha  occ. eigenvalues --   -0.56274  -0.55742  -0.54413  -0.54041  -0.53070
 Alpha  occ. eigenvalues --   -0.52159  -0.52087  -0.51193  -0.50433  -0.50216
 Alpha  occ. eigenvalues --   -0.48355  -0.47404  -0.46650  -0.45931  -0.44604
 Alpha  occ. eigenvalues --   -0.44207
 Alpha virt. eigenvalues --   -0.17524  -0.11546  -0.09283  -0.07455  -0.06582
 Alpha virt. eigenvalues --   -0.04195  -0.03827  -0.02952  -0.01947  -0.01768
 Alpha virt. eigenvalues --   -0.01198  -0.00302  -0.00108   0.00117   0.00851
 Alpha virt. eigenvalues --    0.01492   0.02254   0.02463   0.02797   0.03554
 Alpha virt. eigenvalues --    0.04591   0.04755   0.05326   0.05829   0.06907
 Alpha virt. eigenvalues --    0.07389   0.08796   0.09147   0.11375   0.11751
 Alpha virt. eigenvalues --    0.12851   0.13570   0.14682   0.20485   0.20772
 Alpha virt. eigenvalues --    0.25170   0.26422   0.27944   0.28587   0.29261
 Alpha virt. eigenvalues --    0.29540   0.31564   0.32132   0.32268   0.35889
 Alpha virt. eigenvalues --    0.36160   0.37064   0.38540   0.39542   0.41027
 Alpha virt. eigenvalues --    0.42247   0.42522   0.43299   0.44010   0.45717
 Alpha virt. eigenvalues --    0.46775   0.46981   0.47635   0.48816   0.49779
 Alpha virt. eigenvalues --    0.49837   0.51166   0.51660   0.52186   0.53211
 Alpha virt. eigenvalues --    0.53367   0.54284   0.55156   0.55620   0.55807
 Alpha virt. eigenvalues --    0.56024   0.56863   0.57093   0.57744   0.58351
 Alpha virt. eigenvalues --    0.58755   0.58942   0.59289   0.59844   0.60962
 Alpha virt. eigenvalues --    0.61530   0.62578   0.62913   0.63208   0.63568
 Alpha virt. eigenvalues --    0.65339   0.66401   0.67172   0.68148   0.68748
 Alpha virt. eigenvalues --    0.70888   0.72105   0.72419   0.77958   0.78079
 Alpha virt. eigenvalues --    0.79149   0.81428   0.83222   0.84369   0.85931
 Alpha virt. eigenvalues --    0.86786   0.89328   0.91439   0.93469   0.98588
 Alpha virt. eigenvalues --    1.01537   1.03183   1.05155   1.06500   1.09517
 Alpha virt. eigenvalues --    1.10474   1.12081   1.13559   1.15708   1.17857
 Alpha virt. eigenvalues --    1.22350   1.22850   1.24758   1.25349   1.27002
 Alpha virt. eigenvalues --    1.29933   1.35425   1.36959   1.39783   1.40294
 Alpha virt. eigenvalues --    1.40878   1.41504   1.41989   1.42388   1.43600
 Alpha virt. eigenvalues --    1.44494   1.49479   1.52316   1.53104   1.54006
 Alpha virt. eigenvalues --    1.56710   1.57364   1.60020   1.60507   1.61200
 Alpha virt. eigenvalues --    1.61692   1.62580   1.63040   1.63727   1.64532
 Alpha virt. eigenvalues --    1.66053   1.66461   1.67749   1.69443   1.70050
 Alpha virt. eigenvalues --    1.70415   1.71300   1.72027   1.74761   1.75004
 Alpha virt. eigenvalues --    1.75786   1.77560   1.77751   1.78366   1.78902
 Alpha virt. eigenvalues --    1.80601   1.81155   1.81294   1.84463   1.85318
 Alpha virt. eigenvalues --    1.85739   1.86317   1.88185   1.89708   1.90614
 Alpha virt. eigenvalues --    1.92052   1.92636   1.93367   1.95318   2.00630
 Alpha virt. eigenvalues --    2.01234   2.04907   2.07272   2.08537   2.12151
 Alpha virt. eigenvalues --    2.14542   2.14754   2.17094   2.17774   2.20112
 Alpha virt. eigenvalues --    2.22675   2.23690   2.27958   2.28326   2.29603
 Alpha virt. eigenvalues --    2.31609   2.32571   2.32765   2.34843   2.36242
 Alpha virt. eigenvalues --    2.37500   2.38232   2.43270   2.45715   2.47663
 Alpha virt. eigenvalues --    2.48501   2.50071   2.50806   2.53405   2.55987
 Alpha virt. eigenvalues --    2.56524   2.57403   2.58935   2.59406   2.61541
 Alpha virt. eigenvalues --    2.64793   2.70176   2.73429   2.75229   2.77035
 Alpha virt. eigenvalues --    2.77528   2.78384   2.78925   2.80977   2.81961
 Alpha virt. eigenvalues --    2.85035   2.86409   2.88820   2.89573   2.90802
 Alpha virt. eigenvalues --    2.94810   2.96151   2.98124   3.00765   3.07150
 Alpha virt. eigenvalues --    3.10872   3.18449   3.21960   3.47276   3.52157
  Beta  occ. eigenvalues --  -66.41712 -19.41397 -19.38144 -14.64157 -10.55301
  Beta  occ. eigenvalues --  -10.47979 -10.40551 -10.37753 -10.36665 -10.35631
  Beta  occ. eigenvalues --  -10.35007 -10.34528 -10.34106  -5.50320  -3.84479
  Beta  occ. eigenvalues --   -3.83894  -3.83782  -1.30363  -1.21186  -1.12346
  Beta  occ. eigenvalues --   -0.98516  -0.92924  -0.88614  -0.84020  -0.83567
  Beta  occ. eigenvalues --   -0.82414  -0.81717  -0.79940  -0.73825  -0.73212
  Beta  occ. eigenvalues --   -0.69218  -0.67105  -0.66432  -0.62995  -0.60592
  Beta  occ. eigenvalues --   -0.59141  -0.58447  -0.58025  -0.56996  -0.56773
  Beta  occ. eigenvalues --   -0.55943  -0.54974  -0.53958  -0.52993  -0.52148
  Beta  occ. eigenvalues --   -0.52015  -0.51328  -0.50296  -0.49951  -0.48279
  Beta  occ. eigenvalues --   -0.46938  -0.46653  -0.45468  -0.44539  -0.43107
  Beta virt. eigenvalues --   -0.38389  -0.17024  -0.11192  -0.09164  -0.07300
  Beta virt. eigenvalues --   -0.06429  -0.04141  -0.03650  -0.02834  -0.01675
  Beta virt. eigenvalues --   -0.01547  -0.01063  -0.00109   0.00160   0.00236
  Beta virt. eigenvalues --    0.00938   0.01673   0.02498   0.02559   0.02873
  Beta virt. eigenvalues --    0.03744   0.04728   0.04917   0.05476   0.05943
  Beta virt. eigenvalues --    0.06947   0.07500   0.08928   0.09422   0.11459
  Beta virt. eigenvalues --    0.12012   0.12997   0.13741   0.14859   0.20777
  Beta virt. eigenvalues --    0.21058   0.25298   0.26548   0.28151   0.28712
  Beta virt. eigenvalues --    0.29531   0.29721   0.31670   0.32217   0.32565
  Beta virt. eigenvalues --    0.36012   0.36396   0.37465   0.38695   0.39640
  Beta virt. eigenvalues --    0.41373   0.42353   0.42651   0.43644   0.44517
  Beta virt. eigenvalues --    0.46158   0.46990   0.47164   0.48109   0.49015
  Beta virt. eigenvalues --    0.49891   0.50129   0.51321   0.51970   0.52403
  Beta virt. eigenvalues --    0.53327   0.53548   0.54532   0.55326   0.55843
  Beta virt. eigenvalues --    0.55920   0.56634   0.56983   0.57322   0.57855
  Beta virt. eigenvalues --    0.58482   0.58905   0.59143   0.59421   0.60040
  Beta virt. eigenvalues --    0.61591   0.61685   0.62812   0.63078   0.63670
  Beta virt. eigenvalues --    0.64042   0.65556   0.66753   0.67412   0.68359
  Beta virt. eigenvalues --    0.68976   0.71338   0.72224   0.72561   0.78205
  Beta virt. eigenvalues --    0.78349   0.79287   0.81777   0.83409   0.84720
  Beta virt. eigenvalues --    0.86387   0.87044   0.89486   0.91637   0.93680
  Beta virt. eigenvalues --    0.99198   1.01705   1.03434   1.05356   1.07027
  Beta virt. eigenvalues --    1.09771   1.10653   1.12270   1.13737   1.15965
  Beta virt. eigenvalues --    1.18053   1.22526   1.22980   1.25260   1.25578
  Beta virt. eigenvalues --    1.27207   1.30180   1.35700   1.37074   1.39887
  Beta virt. eigenvalues --    1.40358   1.41018   1.41561   1.42056   1.42420
  Beta virt. eigenvalues --    1.43715   1.44594   1.49627   1.52764   1.53569
  Beta virt. eigenvalues --    1.54627   1.56869   1.57487   1.60073   1.60605
  Beta virt. eigenvalues --    1.61328   1.61834   1.62687   1.63168   1.64028
  Beta virt. eigenvalues --    1.64641   1.66149   1.66669   1.67918   1.69507
  Beta virt. eigenvalues --    1.70166   1.70537   1.71554   1.72332   1.74931
  Beta virt. eigenvalues --    1.75097   1.75891   1.77725   1.77979   1.78757
  Beta virt. eigenvalues --    1.79018   1.80704   1.81309   1.81457   1.84705
  Beta virt. eigenvalues --    1.85537   1.85921   1.86447   1.88298   1.89936
  Beta virt. eigenvalues --    1.90816   1.92243   1.92823   1.93592   1.95855
  Beta virt. eigenvalues --    2.00907   2.01742   2.05334   2.07621   2.09273
  Beta virt. eigenvalues --    2.12545   2.14712   2.15478   2.17284   2.17879
  Beta virt. eigenvalues --    2.20339   2.22940   2.23986   2.28154   2.28465
  Beta virt. eigenvalues --    2.29758   2.31797   2.32711   2.32999   2.34964
  Beta virt. eigenvalues --    2.36625   2.37842   2.38401   2.43635   2.46250
  Beta virt. eigenvalues --    2.48269   2.49161   2.50253   2.51071   2.54171
  Beta virt. eigenvalues --    2.56197   2.57369   2.57905   2.59609   2.60296
  Beta virt. eigenvalues --    2.62171   2.65579   2.70884   2.73592   2.75444
  Beta virt. eigenvalues --    2.77117   2.77662   2.78465   2.79251   2.81170
  Beta virt. eigenvalues --    2.82137   2.85311   2.86612   2.89113   2.89718
  Beta virt. eigenvalues --    2.90956   2.95158   2.96652   2.98653   3.01285
  Beta virt. eigenvalues --    3.07190   3.11200   3.19060   3.23126   3.47726
  Beta virt. eigenvalues --    3.52651
          Condensed to atoms (all electrons):
               1          2          3          4          5          6
     1  C    4.663119  -0.062625  -0.000033  -0.000002  -0.000603  -0.048698
     2  C   -0.062625   4.567385  -0.000004   0.000000  -0.000000  -0.059286
     3  C   -0.000033  -0.000004   4.905371  -0.032552  -0.024315   0.000081
     4  C   -0.000002   0.000000  -0.032552   4.886634  -0.035596  -0.000040
     5  C   -0.000603  -0.000000  -0.024315  -0.035596   4.905674   0.000117
     6  C   -0.048698  -0.059286   0.000081  -0.000040   0.000117   4.982942
     7  C    0.371515   0.399948  -0.000211   0.000001  -0.000015   0.313509
     8  C   -0.003143   0.008796  -0.000650  -0.000743  -0.000507   0.254772
     9  C   -0.003431  -0.000534   0.000763   0.001403  -0.001427  -0.038847
    10  N   -0.000138  -0.000085  -0.000002  -0.000014   0.000011  -0.049357
    11  O   -0.000017  -0.000015  -0.000165   0.000092  -0.000030  -0.005946
    12  O   -0.000386   0.000069  -0.033151  -0.025615  -0.018947  -0.006192
    13  Si   0.000632  -0.000022   0.432363   0.424768   0.404934   0.000378
    14  H    0.394273  -0.003917   0.000002  -0.000000   0.000018  -0.006940
    15  H    0.376229   0.009891  -0.000214   0.000022   0.000568  -0.010827
    16  H    0.410514  -0.005047   0.000001   0.000000  -0.000001   0.005579
    17  H   -0.010611   0.402179   0.000000  -0.000000   0.000000  -0.009519
    18  H   -0.003837   0.387754   0.000003   0.000000  -0.000000   0.010343
    19  H    0.009173   0.395223  -0.000001   0.000000   0.000000  -0.006467
    20  H   -0.000001   0.000003   0.365279  -0.002935   0.001678   0.000008
    21  H    0.000233   0.000018   0.365923   0.002752  -0.003435   0.000001
    22  H   -0.000001   0.000000   0.390225   0.000014   0.000237  -0.000001
    23  H    0.000000  -0.000000   0.000439   0.371605   0.001305   0.000001
    24  H    0.000000   0.000000  -0.004343   0.363339   0.002388   0.000002
    25  H    0.000000  -0.000000   0.001786   0.384062  -0.002700   0.000001
    26  H    0.000008   0.000000   0.000388  -0.000416   0.383816  -0.000002
    27  H   -0.000244  -0.000002  -0.002993   0.003035   0.374702  -0.000062
    28  H   -0.000107  -0.000001   0.001720  -0.001108   0.373408   0.000129
    29  H   -0.007121  -0.001404  -0.000000   0.000000   0.000000   0.381739
    30  H    0.006987  -0.005120   0.000008  -0.000001  -0.000004   0.369996
    31  H   -0.040937  -0.022883  -0.000028   0.000066  -0.000013  -0.035690
    32  H    0.003808   0.000460   0.000072  -0.000025   0.004221  -0.021927
    33  H   -0.000007  -0.000001   0.000001   0.000000   0.000009  -0.004199
    34  H   -0.000000   0.000006  -0.000000  -0.000024   0.000049   0.006219
               7          8          9         10         11         12
     1  C    0.371515  -0.003143  -0.003431  -0.000138  -0.000017  -0.000386
     2  C    0.399948   0.008796  -0.000534  -0.000085  -0.000015   0.000069
     3  C   -0.000211  -0.000650   0.000763  -0.000002  -0.000165  -0.033151
     4  C    0.000001  -0.000743   0.001403  -0.000014   0.000092  -0.025615
     5  C   -0.000015  -0.000507  -0.001427   0.000011  -0.000030  -0.018947
     6  C    0.313509   0.254772  -0.038847  -0.049357  -0.005946  -0.006192
     7  C    5.012483  -0.043905   0.001869   0.004764   0.000397   0.000949
     8  C   -0.043905   5.206809   0.210672   0.340696  -0.080539  -0.082267
     9  C    0.001869   0.210672   4.624989  -0.031484   0.689872   0.320928
    10  N    0.004764   0.340696  -0.031484   6.068027  -0.010398   0.000367
    11  O    0.000397  -0.080539   0.689872  -0.010398   7.613406  -0.083243
    12  O    0.000949  -0.082267   0.320928   0.000367  -0.083243   7.969653
    13  Si   0.000035   0.003342  -0.023974   0.000345   0.002217   0.298210
    14  H   -0.040006  -0.003366   0.000428  -0.000029   0.000000  -0.000015
    15  H   -0.031815   0.003344  -0.000862   0.000075  -0.000009   0.001394
    16  H   -0.016161   0.000022   0.000039   0.000003   0.000000  -0.000012
    17  H   -0.017233   0.000109   0.000078  -0.000000   0.000000  -0.000006
    18  H   -0.033321  -0.000546  -0.000046   0.000003   0.000001   0.000007
    19  H   -0.022593   0.000661  -0.000263  -0.000009  -0.000014   0.000016
    20  H   -0.000031   0.000041  -0.000241   0.000000   0.000003   0.000652
    21  H   -0.000393   0.000029  -0.000254   0.000000   0.000012  -0.000233
    22  H    0.000001   0.000009  -0.000010   0.000000  -0.000001   0.001414
    23  H   -0.000000   0.000275   0.002228   0.000010   0.003104  -0.002918
    24  H    0.000000  -0.000000  -0.000203   0.000000  -0.000041   0.001867
    25  H   -0.000000   0.000048   0.000034  -0.000002  -0.000012   0.000879
    26  H    0.000000   0.000069   0.000023  -0.000001   0.000001   0.000799
    27  H    0.000071  -0.000292   0.000306  -0.000001   0.000001  -0.000186
    28  H    0.000020  -0.001840   0.000876   0.000020   0.000001  -0.001279
    29  H   -0.011682  -0.022266   0.007637  -0.002366  -0.000006  -0.000230
    30  H   -0.020581  -0.020583  -0.010689  -0.001812   0.004785   0.000663
    31  H    0.381869  -0.018212   0.014948   0.000211  -0.000470   0.004667
    32  H   -0.003342   0.380317  -0.035496  -0.029151   0.003431   0.007175
    33  H    0.000141  -0.023174  -0.007584   0.361506   0.018665   0.000803
    34  H   -0.000293  -0.022618   0.005296   0.353847  -0.000250  -0.000177
              13         14         15         16         17         18
     1  C    0.000632   0.394273   0.376229   0.410514  -0.010611  -0.003837
     2  C   -0.000022  -0.003917   0.009891  -0.005047   0.402179   0.387754
     3  C    0.432363   0.000002  -0.000214   0.000001   0.000000   0.000003
     4  C    0.424768  -0.000000   0.000022   0.000000  -0.000000   0.000000
     5  C    0.404934   0.000018   0.000568  -0.000001   0.000000  -0.000000
     6  C    0.000378  -0.006940  -0.010827   0.005579  -0.009519   0.010343
     7  C    0.000035  -0.040006  -0.031815  -0.016161  -0.017233  -0.033321
     8  C    0.003342  -0.003366   0.003344   0.000022   0.000109  -0.000546
     9  C   -0.023974   0.000428  -0.000862   0.000039   0.000078  -0.000046
    10  N    0.000345  -0.000029   0.000075   0.000003  -0.000000   0.000003
    11  O    0.002217   0.000000  -0.000009   0.000000   0.000000   0.000001
    12  O    0.298210  -0.000015   0.001394  -0.000012  -0.000006   0.000007
    13  Si  11.884372  -0.000040   0.000077   0.000004  -0.000001   0.000000
    14  H   -0.000040   0.613128  -0.015553  -0.019462   0.006228  -0.001830
    15  H    0.000077  -0.015553   0.659488  -0.020073   0.000218   0.000305
    16  H    0.000004  -0.019462  -0.020073   0.558308  -0.001076   0.004316
    17  H   -0.000001   0.006228   0.000218  -0.001076   0.613485  -0.023984
    18  H    0.000000  -0.001830   0.000305   0.004316  -0.023984   0.595891
    19  H    0.000007  -0.000301  -0.000696   0.000261  -0.027940  -0.010922
    20  H   -0.009018   0.000000  -0.000000  -0.000001   0.000000  -0.000002
    21  H   -0.013427  -0.000005   0.000029   0.000070  -0.000000   0.000012
    22  H   -0.019334   0.000000   0.000001  -0.000000   0.000000  -0.000000
    23  H   -0.008673   0.000000  -0.000001  -0.000000   0.000000  -0.000000
    24  H   -0.011659   0.000000  -0.000001  -0.000000   0.000000  -0.000000
    25  H   -0.019176   0.000000  -0.000000   0.000000   0.000000  -0.000000
    26  H   -0.012588  -0.000000   0.000022  -0.000000  -0.000000   0.000000
    27  H   -0.020573  -0.000022   0.003490   0.000038  -0.000000   0.000001
    28  H   -0.013508   0.000002  -0.000509   0.000007   0.000000   0.000000
    29  H   -0.000034   0.006610  -0.000094  -0.000031   0.003767  -0.000273
    30  H    0.000014  -0.000037  -0.000345  -0.000204  -0.001265   0.000008
    31  H   -0.001278   0.010146  -0.008944  -0.003504   0.007951  -0.009506
    32  H   -0.001195   0.000700   0.007979  -0.000598  -0.000014  -0.000018
    33  H   -0.000088   0.000004  -0.000021   0.000000   0.000000  -0.000000
    34  H    0.000145   0.000006   0.000017  -0.000001   0.000000  -0.000000
              19         20         21         22         23         24
     1  C    0.009173  -0.000001   0.000233  -0.000001   0.000000   0.000000
     2  C    0.395223   0.000003   0.000018   0.000000  -0.000000   0.000000
     3  C   -0.000001   0.365279   0.365923   0.390225   0.000439  -0.004343
     4  C    0.000000  -0.002935   0.002752   0.000014   0.371605   0.363339
     5  C    0.000000   0.001678  -0.003435   0.000237   0.001305   0.002388
     6  C   -0.006467   0.000008   0.000001  -0.000001   0.000001   0.000002
     7  C   -0.022593  -0.000031  -0.000393   0.000001  -0.000000   0.000000
     8  C    0.000661   0.000041   0.000029   0.000009   0.000275  -0.000000
     9  C   -0.000263  -0.000241  -0.000254  -0.000010   0.002228  -0.000203
    10  N   -0.000009   0.000000   0.000000   0.000000   0.000010   0.000000
    11  O   -0.000014   0.000003   0.000012  -0.000001   0.003104  -0.000041
    12  O    0.000016   0.000652  -0.000233   0.001414  -0.002918   0.001867
    13  Si   0.000007  -0.009018  -0.013427  -0.019334  -0.008673  -0.011659
    14  H   -0.000301   0.000000  -0.000005   0.000000   0.000000   0.000000
    15  H   -0.000696  -0.000000   0.000029   0.000001  -0.000001  -0.000001
    16  H    0.000261  -0.000001   0.000070  -0.000000  -0.000000  -0.000000
    17  H   -0.027940   0.000000  -0.000000   0.000000   0.000000   0.000000
    18  H   -0.010922  -0.000002   0.000012  -0.000000  -0.000000  -0.000000
    19  H    0.612169  -0.000000   0.000002   0.000000   0.000000  -0.000000
    20  H   -0.000000   0.549323  -0.016307  -0.011086   0.000129   0.000787
    21  H    0.000002  -0.016307   0.577577  -0.009719  -0.000097  -0.000044
    22  H    0.000000  -0.011086  -0.009719   0.538328  -0.000018   0.000185
    23  H    0.000000   0.000129  -0.000097  -0.000018   0.545067  -0.013674
    24  H   -0.000000   0.000787  -0.000044   0.000185  -0.013674   0.585777
    25  H   -0.000000  -0.000030  -0.000059  -0.000045  -0.012063  -0.007917
    26  H   -0.000000  -0.000022  -0.000004   0.000023  -0.000019  -0.000101
    27  H   -0.000000  -0.000178   0.002348   0.000087  -0.000052  -0.000133
    28  H    0.000000  -0.000052  -0.000078  -0.000029  -0.000071  -0.000056
    29  H   -0.001150  -0.000000   0.000000   0.000000   0.000000  -0.000000
    30  H    0.008295  -0.000002  -0.000001  -0.000000  -0.000002   0.000000
    31  H   -0.006839   0.000207   0.002253   0.000024  -0.000003  -0.000003
    32  H   -0.000029  -0.000015  -0.000037   0.000004  -0.000094   0.000011
    33  H   -0.000002   0.000000  -0.000000   0.000000  -0.000013  -0.000000
    34  H    0.000000   0.000000  -0.000000   0.000000   0.000014   0.000001
              25         26         27         28         29         30
     1  C    0.000000   0.000008  -0.000244  -0.000107  -0.007121   0.006987
     2  C   -0.000000   0.000000  -0.000002  -0.000001  -0.001404  -0.005120
     3  C    0.001786   0.000388  -0.002993   0.001720  -0.000000   0.000008
     4  C    0.384062  -0.000416   0.003035  -0.001108   0.000000  -0.000001
     5  C   -0.002700   0.383816   0.374702   0.373408   0.000000  -0.000004
     6  C    0.000001  -0.000002  -0.000062   0.000129   0.381739   0.369996
     7  C   -0.000000   0.000000   0.000071   0.000020  -0.011682  -0.020581
     8  C    0.000048   0.000069  -0.000292  -0.001840  -0.022266  -0.020583
     9  C    0.000034   0.000023   0.000306   0.000876   0.007637  -0.010689
    10  N   -0.000002  -0.000001  -0.000001   0.000020  -0.002366  -0.001812
    11  O   -0.000012   0.000001   0.000001   0.000001  -0.000006   0.004785
    12  O    0.000879   0.000799  -0.000186  -0.001279  -0.000230   0.000663
    13  Si  -0.019176  -0.012588  -0.020573  -0.013508  -0.000034   0.000014
    14  H    0.000000  -0.000000  -0.000022   0.000002   0.006610  -0.000037
    15  H   -0.000000   0.000022   0.003490  -0.000509  -0.000094  -0.000345
    16  H    0.000000  -0.000000   0.000038   0.000007  -0.000031  -0.000204
    17  H    0.000000  -0.000000  -0.000000   0.000000   0.003767  -0.001265
    18  H   -0.000000   0.000000   0.000001   0.000000  -0.000273   0.000008
    19  H   -0.000000  -0.000000  -0.000000   0.000000  -0.001150   0.008295
    20  H   -0.000030  -0.000022  -0.000178  -0.000052  -0.000000  -0.000002
    21  H   -0.000059  -0.000004   0.002348  -0.000078   0.000000  -0.000001
    22  H   -0.000045   0.000023   0.000087  -0.000029   0.000000  -0.000000
    23  H   -0.012063  -0.000019  -0.000052  -0.000071   0.000000  -0.000002
    24  H   -0.007917  -0.000101  -0.000133  -0.000056  -0.000000   0.000000
    25  H    0.535230   0.000466  -0.000046   0.000555   0.000000  -0.000000
    26  H    0.000466   0.530021  -0.011498  -0.014863   0.000000   0.000000
    27  H   -0.000046  -0.011498   0.561606  -0.010962   0.000004  -0.000001
    28  H    0.000555  -0.014863  -0.010962   0.571616   0.000005  -0.000002
    29  H    0.000000   0.000000   0.000004   0.000005   0.570035  -0.018609
    30  H   -0.000000   0.000000  -0.000001  -0.000002  -0.018609   0.583915
    31  H   -0.000001   0.000001  -0.000130  -0.000011   0.006977  -0.006875
    32  H   -0.000026  -0.000135  -0.000223   0.005930  -0.003606   0.006743
    33  H   -0.000001  -0.000000  -0.000001  -0.000007  -0.000881   0.003115
    34  H    0.000003  -0.000003  -0.000005   0.000100   0.000282  -0.000364
              31         32         33         34
     1  C   -0.040937   0.003808  -0.000007  -0.000000
     2  C   -0.022883   0.000460  -0.000001   0.000006
     3  C   -0.000028   0.000072   0.000001  -0.000000
     4  C    0.000066  -0.000025   0.000000  -0.000024
     5  C   -0.000013   0.004221   0.000009   0.000049
     6  C   -0.035690  -0.021927  -0.004199   0.006219
     7  C    0.381869  -0.003342   0.000141  -0.000293
     8  C   -0.018212   0.380317  -0.023174  -0.022618
     9  C    0.014948  -0.035496  -0.007584   0.005296
    10  N    0.000211  -0.029151   0.361506   0.353847
    11  O   -0.000470   0.003431   0.018665  -0.000250
    12  O    0.004667   0.007175   0.000803  -0.000177
    13  Si  -0.001278  -0.001195  -0.000088   0.000145
    14  H    0.010146   0.000700   0.000004   0.000006
    15  H   -0.008944   0.007979  -0.000021   0.000017
    16  H   -0.003504  -0.000598   0.000000  -0.000001
    17  H    0.007951  -0.000014   0.000000   0.000000
    18  H   -0.009506  -0.000018  -0.000000  -0.000000
    19  H   -0.006839  -0.000029  -0.000002   0.000000
    20  H    0.000207  -0.000015   0.000000   0.000000
    21  H    0.002253  -0.000037  -0.000000  -0.000000
    22  H    0.000024   0.000004   0.000000   0.000000
    23  H   -0.000003  -0.000094  -0.000013   0.000014
    24  H   -0.000003   0.000011  -0.000000   0.000001
    25  H   -0.000001  -0.000026  -0.000001   0.000003
    26  H    0.000001  -0.000135  -0.000000  -0.000003
    27  H   -0.000130  -0.000223  -0.000001  -0.000005
    28  H   -0.000011   0.005930  -0.000007   0.000100
    29  H    0.006977  -0.003606  -0.000881   0.000282
    30  H   -0.006875   0.006743   0.003115  -0.000364
    31  H    0.683004  -0.001584   0.000024   0.000029
    32  H   -0.001584   0.574713   0.006471  -0.008791
    33  H    0.000024   0.006471   0.501288  -0.019989
    34  H    0.000029  -0.008791  -0.019989   0.490755
          Atomic-Atomic Spin Densities.
               1          2          3          4          5          6
     1  C    0.000327  -0.000572  -0.000012  -0.000000   0.000029  -0.000593
     2  C   -0.000572   0.010860   0.000002   0.000000  -0.000001  -0.002801
     3  C   -0.000012   0.000002   0.030650   0.002233  -0.003304   0.000025
     4  C   -0.000000   0.000000   0.002233   0.033595  -0.003491   0.000015
     5  C    0.000029  -0.000001  -0.003304  -0.003491   0.085692  -0.000083
     6  C   -0.000593  -0.002801   0.000025   0.000015  -0.000083   0.010264
     7  C    0.000902   0.000703  -0.000013  -0.000002   0.000025   0.010526
     8  C    0.000185  -0.000233  -0.000146  -0.000273   0.000839   0.014212
     9  C    0.000234  -0.000062  -0.000734  -0.000820   0.001590   0.000094
    10  N    0.000030  -0.000019   0.000002   0.000046  -0.000071  -0.003963
    11  O   -0.000002   0.000010  -0.000071  -0.000673   0.000025   0.002513
    12  O   -0.000137   0.000029  -0.002283  -0.000821  -0.003237   0.002382
    13  Si  -0.000003  -0.000003   0.005719   0.006812   0.006103  -0.000139
    14  H   -0.000078   0.000450   0.000000   0.000000  -0.000002   0.000130
    15  H   -0.000400   0.000137   0.000023   0.000002  -0.000078   0.000275
    16  H    0.000433  -0.000173  -0.000002  -0.000000   0.000003  -0.000057
    17  H   -0.000038   0.001233   0.000000   0.000000  -0.000000  -0.000110
    18  H    0.000311   0.000460  -0.000001  -0.000000   0.000001   0.000085
    19  H    0.000009  -0.000382  -0.000000  -0.000000   0.000000   0.000084
    20  H    0.000002  -0.000002  -0.001720  -0.000199   0.000116  -0.000008
    21  H    0.000002  -0.000000   0.000009  -0.000026   0.000009   0.000002
    22  H    0.000001  -0.000000  -0.000816  -0.000124   0.000286  -0.000000
    23  H    0.000000  -0.000000  -0.000164  -0.001139   0.000165  -0.000003
    24  H    0.000000  -0.000000  -0.001183  -0.000011   0.000433  -0.000001
    25  H    0.000000  -0.000000  -0.000049  -0.000430   0.000250  -0.000000
    26  H   -0.000001   0.000000   0.000072   0.000064  -0.001135   0.000001
    27  H   -0.000029   0.000002   0.000369   0.000031  -0.002087   0.000033
    28  H   -0.000011   0.000000   0.000077   0.000254  -0.002612   0.000038
    29  H    0.000311  -0.001293  -0.000001  -0.000000   0.000006  -0.001025
    30  H   -0.000069   0.000776   0.000001   0.000001  -0.000001   0.003654
    31  H   -0.000341   0.000443   0.000095   0.000007  -0.000049  -0.000290
    32  H   -0.000288   0.000127   0.000085   0.000135  -0.000952   0.006110
    33  H   -0.000003   0.000006   0.000001   0.000009  -0.000006   0.002087
    34  H   -0.000004   0.000001   0.000001   0.000032  -0.000051   0.000176
               7          8          9         10         11         12
     1  C    0.000902   0.000185   0.000234   0.000030  -0.000002  -0.000137
     2  C    0.000703  -0.000233  -0.000062  -0.000019   0.000010   0.000029
     3  C   -0.000013  -0.000146  -0.000734   0.000002  -0.000071  -0.002283
     4  C   -0.000002  -0.000273  -0.000820   0.000046  -0.000673  -0.000821
     5  C    0.000025   0.000839   0.001590  -0.000071   0.000025  -0.003237
     6  C    0.010526   0.014212   0.000094  -0.003963   0.002513   0.002382
     7  C   -0.001194   0.000832  -0.000927  -0.000057  -0.000157  -0.000412
     8  C    0.000832   0.027464   0.058152  -0.051897  -0.001116  -0.015908
     9  C   -0.000927   0.058152   0.027990  -0.004001  -0.008834  -0.025773
    10  N   -0.000057  -0.051897  -0.004001   0.605865   0.003477   0.001503
    11  O   -0.000157  -0.001116  -0.008834   0.003477   0.082344   0.002758
    12  O   -0.000412  -0.015908  -0.025773   0.001503   0.002758   0.136843
    13  Si   0.000048  -0.000134   0.001552  -0.000011   0.000075  -0.002916
    14  H   -0.000474  -0.000003  -0.000024  -0.000031   0.000000   0.000011
    15  H   -0.000344  -0.000224  -0.000182  -0.000023   0.000003   0.000238
    16  H    0.000056   0.000031   0.000010   0.000001  -0.000000  -0.000007
    17  H   -0.000369  -0.000019  -0.000004  -0.000002   0.000000   0.000001
    18  H   -0.000168   0.000044   0.000014   0.000000  -0.000000  -0.000005
    19  H    0.000344   0.000028   0.000018   0.000001  -0.000002  -0.000002
    20  H    0.000004   0.000031   0.000150  -0.000000   0.000046   0.000472
    21  H    0.000002   0.000003  -0.000005  -0.000000  -0.000001  -0.000036
    22  H    0.000000   0.000002   0.000018  -0.000000   0.000001   0.000044
    23  H    0.000000   0.000049  -0.000027  -0.000017   0.000266   0.000289
    24  H    0.000000   0.000012   0.000049  -0.000001   0.000045   0.000188
    25  H    0.000000   0.000003   0.000009  -0.000001   0.000006  -0.000014
    26  H   -0.000000  -0.000006  -0.000019   0.000000  -0.000000   0.000009
    27  H   -0.000018  -0.000100  -0.000173   0.000004  -0.000001   0.000321
    28  H   -0.000007  -0.000331  -0.000261   0.000057  -0.000002   0.000578
    29  H    0.001033  -0.002322   0.000116   0.004336  -0.000152  -0.000129
    30  H   -0.001384  -0.000134  -0.001228  -0.000620   0.000111   0.000099
    31  H    0.000868  -0.000935  -0.000025   0.000022   0.000089   0.000290
    32  H   -0.001107  -0.002216  -0.006139  -0.000455   0.000036   0.004107
    33  H   -0.000051  -0.002403   0.000183  -0.003132   0.000681   0.000121
    34  H    0.000012  -0.002453  -0.000418  -0.001913   0.000269   0.000241
              13         14         15         16         17         18
     1  C   -0.000003  -0.000078  -0.000400   0.000433  -0.000038   0.000311
     2  C   -0.000003   0.000450   0.000137  -0.000173   0.001233   0.000460
     3  C    0.005719   0.000000   0.000023  -0.000002   0.000000  -0.000001
     4  C    0.006812   0.000000   0.000002  -0.000000   0.000000  -0.000000
     5  C    0.006103  -0.000002  -0.000078   0.000003  -0.000000   0.000001
     6  C   -0.000139   0.000130   0.000275  -0.000057  -0.000110   0.000085
     7  C    0.000048  -0.000474  -0.000344   0.000056  -0.000369  -0.000168
     8  C   -0.000134  -0.000003  -0.000224   0.000031  -0.000019   0.000044
     9  C    0.001552  -0.000024  -0.000182   0.000010  -0.000004   0.000014
    10  N   -0.000011  -0.000031  -0.000023   0.000001  -0.000002   0.000000
    11  O    0.000075   0.000000   0.000003  -0.000000   0.000000  -0.000000
    12  O   -0.002916   0.000011   0.000238  -0.000007   0.000001  -0.000005
    13  Si  -0.021825  -0.000001   0.000001   0.000002  -0.000000   0.000001
    14  H   -0.000001   0.001111   0.000259  -0.000183   0.000076  -0.000111
    15  H    0.000001   0.000259   0.000500  -0.000185   0.000011  -0.000049
    16  H    0.000002  -0.000183  -0.000185   0.000450  -0.000018   0.000150
    17  H   -0.000000   0.000076   0.000011  -0.000018   0.000713  -0.000447
    18  H    0.000001  -0.000111  -0.000049   0.000150  -0.000447   0.006504
    19  H    0.000000  -0.000012  -0.000004   0.000006  -0.000096   0.000197
    20  H    0.000320  -0.000000  -0.000002   0.000000  -0.000000   0.000002
    21  H    0.001027  -0.000000  -0.000002   0.000000   0.000000  -0.000000
    22  H    0.000007  -0.000000  -0.000001   0.000000  -0.000000   0.000000
    23  H   -0.000664  -0.000000  -0.000000   0.000000  -0.000000   0.000000
    24  H   -0.000248  -0.000000  -0.000000   0.000000  -0.000000   0.000000
    25  H    0.000424  -0.000000  -0.000000   0.000000  -0.000000   0.000000
    26  H    0.000658   0.000000   0.000004  -0.000000   0.000000  -0.000000
    27  H    0.002141   0.000005   0.000092  -0.000014   0.000000  -0.000001
    28  H    0.000998   0.000002   0.000047  -0.000002   0.000000  -0.000000
    29  H    0.000007  -0.000456  -0.000157   0.000034  -0.000205   0.000087
    30  H    0.000005   0.000025   0.000023  -0.000003   0.000045  -0.000054
    31  H   -0.000039   0.000037   0.000095  -0.000037   0.000025  -0.000198
    32  H   -0.000085   0.000116   0.000555  -0.000028   0.000005  -0.000012
    33  H    0.000007   0.000002   0.000004  -0.000000   0.000000  -0.000000
    34  H   -0.000024   0.000002   0.000008  -0.000000   0.000000  -0.000000
              19         20         21         22         23         24
     1  C    0.000009   0.000002   0.000002   0.000001   0.000000   0.000000
     2  C   -0.000382  -0.000002  -0.000000  -0.000000  -0.000000  -0.000000
     3  C   -0.000000  -0.001720   0.000009  -0.000816  -0.000164  -0.001183
     4  C   -0.000000  -0.000199  -0.000026  -0.000124  -0.001139  -0.000011
     5  C    0.000000   0.000116   0.000009   0.000286   0.000165   0.000433
     6  C    0.000084  -0.000008   0.000002  -0.000000  -0.000003  -0.000001
     7  C    0.000344   0.000004   0.000002   0.000000   0.000000   0.000000
     8  C    0.000028   0.000031   0.000003   0.000002   0.000049   0.000012
     9  C    0.000018   0.000150  -0.000005   0.000018  -0.000027   0.000049
    10  N    0.000001  -0.000000  -0.000000  -0.000000  -0.000017  -0.000001
    11  O   -0.000002   0.000046  -0.000001   0.000001   0.000266   0.000045
    12  O   -0.000002   0.000472  -0.000036   0.000044   0.000289   0.000188
    13  Si   0.000000   0.000320   0.001027   0.000007  -0.000664  -0.000248
    14  H   -0.000012  -0.000000  -0.000000  -0.000000  -0.000000  -0.000000
    15  H   -0.000004  -0.000002  -0.000002  -0.000001  -0.000000  -0.000000
    16  H    0.000006   0.000000   0.000000   0.000000   0.000000   0.000000
    17  H   -0.000096  -0.000000   0.000000  -0.000000  -0.000000  -0.000000
    18  H    0.000197   0.000002  -0.000000   0.000000   0.000000   0.000000
    19  H   -0.000262   0.000000  -0.000000   0.000000   0.000000   0.000000
    20  H    0.000000   0.000048   0.000025   0.000628   0.000034   0.000148
    21  H   -0.000000   0.000025  -0.002243  -0.000098   0.000001   0.000004
    22  H    0.000000   0.000628  -0.000098   0.002540   0.000011   0.000153
    23  H    0.000000   0.000034   0.000001   0.000011  -0.002022   0.001023
    24  H    0.000000   0.000148   0.000004   0.000153   0.001023   0.005330
    25  H    0.000000   0.000005   0.000001   0.000003   0.000272   0.000141
    26  H   -0.000000  -0.000001  -0.000001  -0.000012  -0.000003  -0.000018
    27  H   -0.000000  -0.000007  -0.000045  -0.000060  -0.000003  -0.000006
    28  H   -0.000000  -0.000002   0.000003  -0.000005  -0.000012  -0.000016
    29  H    0.000111   0.000000   0.000000   0.000000   0.000000   0.000000
    30  H   -0.000118  -0.000001  -0.000000  -0.000000  -0.000000  -0.000000
    31  H   -0.000057  -0.000040  -0.000012  -0.000006  -0.000001  -0.000001
    32  H   -0.000005  -0.000010  -0.000003  -0.000002  -0.000010  -0.000006
    33  H   -0.000001  -0.000000  -0.000000  -0.000000  -0.000003  -0.000000
    34  H   -0.000000  -0.000000   0.000000  -0.000000  -0.000008  -0.000001
              25         26         27         28         29         30
     1  C    0.000000  -0.000001  -0.000029  -0.000011   0.000311  -0.000069
     2  C   -0.000000   0.000000   0.000002   0.000000  -0.001293   0.000776
     3  C   -0.000049   0.000072   0.000369   0.000077  -0.000001   0.000001
     4  C   -0.000430   0.000064   0.000031   0.000254  -0.000000   0.000001
     5  C    0.000250  -0.001135  -0.002087  -0.002612   0.000006  -0.000001
     6  C   -0.000000   0.000001   0.000033   0.000038  -0.001025   0.003654
     7  C    0.000000  -0.000000  -0.000018  -0.000007   0.001033  -0.001384
     8  C    0.000003  -0.000006  -0.000100  -0.000331  -0.002322  -0.000134
     9  C    0.000009  -0.000019  -0.000173  -0.000261   0.000116  -0.001228
    10  N   -0.000001   0.000000   0.000004   0.000057   0.004336  -0.000620
    11  O    0.000006  -0.000000  -0.000001  -0.000002  -0.000152   0.000111
    12  O   -0.000014   0.000009   0.000321   0.000578  -0.000129   0.000099
    13  Si   0.000424   0.000658   0.002141   0.000998   0.000007   0.000005
    14  H   -0.000000   0.000000   0.000005   0.000002  -0.000456   0.000025
    15  H   -0.000000   0.000004   0.000092   0.000047  -0.000157   0.000023
    16  H    0.000000  -0.000000  -0.000014  -0.000002   0.000034  -0.000003
    17  H   -0.000000   0.000000   0.000000   0.000000  -0.000205   0.000045
    18  H    0.000000  -0.000000  -0.000001  -0.000000   0.000087  -0.000054
    19  H    0.000000  -0.000000  -0.000000  -0.000000   0.000111  -0.000118
    20  H    0.000005  -0.000001  -0.000007  -0.000002   0.000000  -0.000001
    21  H    0.000001  -0.000001  -0.000045   0.000003   0.000000  -0.000000
    22  H    0.000003  -0.000012  -0.000060  -0.000005   0.000000  -0.000000
    23  H    0.000272  -0.000003  -0.000003  -0.000012   0.000000  -0.000000
    24  H    0.000141  -0.000018  -0.000006  -0.000016   0.000000  -0.000000
    25  H   -0.001867  -0.000021  -0.000006  -0.000038   0.000000  -0.000000
    26  H   -0.000021  -0.001806   0.000350   0.000468  -0.000000   0.000000
    27  H   -0.000006   0.000350  -0.000430   0.000506  -0.000003   0.000000
    28  H   -0.000038   0.000468   0.000506  -0.000844  -0.000006   0.000001
    29  H    0.000000  -0.000000  -0.000003  -0.000006   0.009734  -0.001191
    30  H   -0.000000   0.000000   0.000000   0.000001  -0.001191  -0.002100
    31  H   -0.000000   0.000001   0.000023   0.000006  -0.000118   0.000270
    32  H   -0.000003   0.000024   0.000207   0.000508  -0.001021   0.000012
    33  H   -0.000000   0.000000   0.000000   0.000006  -0.000359  -0.000005
    34  H   -0.000001   0.000001   0.000005   0.000065  -0.000165   0.000059
              31         32         33         34
     1  C   -0.000341  -0.000288  -0.000003  -0.000004
     2  C    0.000443   0.000127   0.000006   0.000001
     3  C    0.000095   0.000085   0.000001   0.000001
     4  C    0.000007   0.000135   0.000009   0.000032
     5  C   -0.000049  -0.000952  -0.000006  -0.000051
     6  C   -0.000290   0.006110   0.002087   0.000176
     7  C    0.000868  -0.001107  -0.000051   0.000012
     8  C   -0.000935  -0.002216  -0.002403  -0.002453
     9  C   -0.000025  -0.006139   0.000183  -0.000418
    10  N    0.000022  -0.000455  -0.003132  -0.001913
    11  O    0.000089   0.000036   0.000681   0.000269
    12  O    0.000290   0.004107   0.000121   0.000241
    13  Si  -0.000039  -0.000085   0.000007  -0.000024
    14  H    0.000037   0.000116   0.000002   0.000002
    15  H    0.000095   0.000555   0.000004   0.000008
    16  H   -0.000037  -0.000028  -0.000000  -0.000000
    17  H    0.000025   0.000005   0.000000   0.000000
    18  H   -0.000198  -0.000012  -0.000000  -0.000000
    19  H   -0.000057  -0.000005  -0.000001  -0.000000
    20  H   -0.000040  -0.000010  -0.000000  -0.000000
    21  H   -0.000012  -0.000003  -0.000000   0.000000
    22  H   -0.000006  -0.000002  -0.000000  -0.000000
    23  H   -0.000001  -0.000010  -0.000003  -0.000008
    24  H   -0.000001  -0.000006  -0.000000  -0.000001
    25  H   -0.000000  -0.000003  -0.000000  -0.000001
    26  H    0.000001   0.000024   0.000000   0.000001
    27  H    0.000023   0.000207   0.000000   0.000005
    28  H    0.000006   0.000508   0.000006   0.000065
    29  H   -0.000118  -0.001021  -0.000359  -0.000165
    30  H    0.000270   0.000012  -0.000005   0.000059
    31  H   -0.000365   0.000330   0.000010   0.000000
    32  H    0.000330  -0.000734   0.000066   0.001569
    33  H    0.000010   0.000066  -0.009007   0.003762
    34  H    0.000000   0.001569   0.003762  -0.007866
 Mulliken charges and spin densities:
               1          2
     1  C   -0.054550   0.000194
     2  C   -0.010786   0.009697
     3  C   -0.365761   0.028865
     4  C   -0.338723   0.035226
     5  C   -0.365542   0.078409
     6  C   -0.021816   0.043631
     7  C   -0.245990   0.008669
     8  C   -0.085363   0.021034
     9  C    0.272956   0.040525
    10  N   -0.005037   0.549131
    11  O   -0.154831   0.081743
    12  O   -0.355654   0.098844
    13  Si   0.702745  -0.000183
    14  H    0.059978   0.000853
    15  H    0.026813   0.000625
    16  H    0.087005   0.000466
    17  H    0.057632   0.000802
    18  H    0.085642   0.006810
    19  H    0.051419  -0.000143
    20  H    0.121810   0.000039
    21  H    0.092832  -0.001385
    22  H    0.109691   0.002568
    23  H    0.113520  -0.001967
    24  H    0.083818   0.006035
    25  H    0.119015  -0.001316
    26  H    0.124014  -0.001373
    27  H    0.101915   0.001106
    28  H    0.090092  -0.000537
    29  H    0.092699   0.007172
    30  H    0.101964  -0.001826
    31  H    0.044534   0.000096
    32  H    0.104270   0.000915
    33  H    0.163941  -0.008024
    34  H    0.195746  -0.006701
 Sum of Mulliken charges =   1.00000   1.00000
 Mulliken charges and spin densities with hydrogens summed into heavy atoms:
               1          2
     1  C    0.119245   0.002138
     2  C    0.183907   0.017166
     3  C   -0.041427   0.030087
     4  C   -0.022370   0.037977
     5  C   -0.049521   0.077605
     6  C    0.172847   0.048978
     7  C   -0.201456   0.008764
     8  C    0.018907   0.021949
     9  C    0.272956   0.040525
    10  N    0.354650   0.534406
    11  O   -0.154831   0.081743
    12  O   -0.355654   0.098844
    13  Si   0.702745  -0.000183
 APT charges:
               1
     1  C   -0.026311
     2  C    0.034278
     3  C   -0.171407
     4  C   -0.336053
     5  C   -0.161378
     6  C    0.358995
     7  C    0.014611
     8  C   -0.150992
     9  C    0.295780
    10  N   -0.749107
    11  O   -0.348114
    12  O    0.259932
    13  Si   0.631790
    14  H    0.029518
    15  H   -0.031215
    16  H    0.052928
    17  H    0.083435
    18  H   -0.012427
    19  H   -0.006336
    20  H    0.005719
    21  H    0.010634
    22  H    0.060651
    23  H    0.062503
    24  H   -0.001336
    25  H    0.052133
    26  H    0.114546
    27  H    0.007372
    28  H    0.009685
    29  H    0.015556
    30  H    0.034677
    31  H   -0.089007
    32  H    0.025534
    33  H    0.444710
    34  H    0.478694
 Sum of APT charges =   1.00000
 APT charges with hydrogens summed into heavy atoms:
               1
     1  C    0.024920
     2  C    0.098949
     3  C   -0.094403
     4  C   -0.222752
     5  C   -0.029774
     6  C    0.409227
     7  C   -0.074396
     8  C   -0.125458
     9  C    0.295780
    10  N    0.174297
    11  O   -0.348114
    12  O    0.259932
    13  Si   0.631790
 Electronic spatial extent (au):  <R**2>=           3333.1493
 Charge=              1.0000 electrons
 Dipole moment (field-independent basis, Debye):
    X=              0.1813    Y=              2.6313    Z=              2.9858  Tot=              3.9839
 Quadrupole moment (field-independent basis, Debye-Ang):
   XX=            -60.4472   YY=            -64.3779   ZZ=            -81.6052
   XY=             -4.8470   XZ=              1.1541   YZ=              8.1684
 Traceless Quadrupole moment (field-independent basis, Debye-Ang):
   XX=              8.3629   YY=              4.4322   ZZ=            -12.7951
   XY=             -4.8470   XZ=              1.1541   YZ=              8.1684
 Octapole moment (field-independent basis, Debye-Ang**2):
  XXX=             11.6961  YYY=             51.9005  ZZZ=              4.4056  XYY=             -7.7116
  XXY=             -5.8960  XXZ=             -4.2421  XZZ=             10.7142  YZZ=              7.0060
  YYZ=             22.0481  XYZ=              1.8972
 Hexadecapole moment (field-independent basis, Debye-Ang**3):
 XXXX=          -2372.7827 YYYY=           -911.3443 ZZZZ=           -611.5972 XXXY=             -0.6714
 XXXZ=              5.2049 YYYX=            -35.1178 YYYZ=             60.3697 ZZZX=             10.0555
 ZZZY=             21.6601 XXYY=           -573.0037 XXZZ=           -505.5800 YYZZ=           -275.6856
 XXYZ=             -7.7542 YYXZ=             -9.9907 ZZXY=            -16.1691
 N-N= 1.001851030049D+03 E-N=-3.976169936794D+03  KE= 8.423551396826D+02
  Exact polarizability: 326.254 -69.521 223.401  12.642   8.355 143.447
 Approx polarizability: 422.748-165.064 375.477 -11.172  18.351 209.964
                          Isotropic Fermi Contact Couplings
        Atom                 a.u.       MegaHertz       Gauss      10(-4) cm-1
     1  C(13)             -0.00040      -0.45232      -0.16140      -0.15088
     2  C(13)              0.00119       1.34244       0.47902       0.44779
     3  C(13)              0.01266      14.23345       5.07885       4.74777
     4  C(13)              0.01273      14.31497       5.10794       4.77496
     5  C(13)              0.02376      26.71411       9.53226       8.91087
     6  C(13)              0.00514       5.77333       2.06007       1.92578
     7  C(13)             -0.00118      -1.32199      -0.47172      -0.44097
     8  C(13)             -0.01860     -20.91487      -7.46294      -6.97645
     9  C(13)              0.06042      67.92025      24.23563      22.65576
    10  N(14)              0.37041     119.68027      42.70490      39.92104
    11  O(17)              0.01869     -11.32981      -4.04276      -3.77922
    12  O(17)              0.06685     -40.52420     -14.46004     -13.51742
    13  Si(29)            -0.03057      27.16581       9.69344       9.06154
    14  H(1)               0.00037       1.66861       0.59540       0.55659
    15  H(1)               0.00001       0.06121       0.02184       0.02042
    16  H(1)               0.00018       0.80598       0.28759       0.26885
    17  H(1)               0.00051       2.30117       0.82111       0.76759
    18  H(1)               0.00267      11.94792       4.26332       3.98540
    19  H(1)              -0.00007      -0.31052      -0.11080      -0.10358
    20  H(1)              -0.00017      -0.78006      -0.27834      -0.26020
    21  H(1)              -0.00048      -2.14483      -0.76533      -0.71544
    22  H(1)               0.00122       5.46634       1.95053       1.82337
    23  H(1)              -0.00066      -2.93618      -1.04770      -0.97940
    24  H(1)               0.00326      14.59058       5.20628       4.86689
    25  H(1)              -0.00046      -2.05130      -0.73196      -0.68424
    26  H(1)              -0.00016      -0.69700      -0.24871      -0.23249
    27  H(1)               0.00060       2.69713       0.96240       0.89967
    28  H(1)              -0.00027      -1.19743      -0.42727      -0.39942
    29  H(1)               0.00144       6.44724       2.30053       2.15057
    30  H(1)              -0.00058      -2.60254      -0.92865      -0.86811
    31  H(1)               0.00010       0.44332       0.15819       0.14788
    32  H(1)              -0.00093      -4.15383      -1.48219      -1.38557
    33  H(1)              -0.00240     -10.74125      -3.83274      -3.58289
    34  H(1)              -0.00132      -5.90793      -2.10810      -1.97067
 --------------------------------------------------------
       Center         ----  Spin Dipole Couplings  ----
                      3XX-RR        3YY-RR        3ZZ-RR
 --------------------------------------------------------
     1   Atom       -0.000763      0.001788     -0.001025
     2   Atom       -0.007259      0.004688      0.002571
     3   Atom       -0.018208      0.017203      0.001006
     4   Atom        0.040097     -0.023730     -0.016366
     5   Atom       -0.033456     -0.031631      0.065088
     6   Atom        0.028687      0.008251     -0.036938
     7   Atom       -0.009182      0.009558     -0.000375
     8   Atom        0.104122     -0.079349     -0.024772
     9   Atom        0.009033     -0.043327      0.034294
    10   Atom        0.795715     -0.504750     -0.290965
    11   Atom        0.335889     -0.186798     -0.149091
    12   Atom        0.044832     -0.193510      0.148678
    13   Atom        0.020819     -0.045495      0.024676
    14   Atom       -0.000251      0.001147     -0.000895
    15   Atom       -0.001002      0.002358     -0.001356
    16   Atom       -0.000538      0.001369     -0.000831
    17   Atom        0.002439     -0.000562     -0.001876
    18   Atom       -0.000937      0.002324     -0.001387
    19   Atom       -0.000811      0.000416      0.000394
    20   Atom       -0.002191      0.000120      0.002072
    21   Atom        0.000221      0.002012     -0.002232
    22   Atom        0.001083      0.000960     -0.002043
    23   Atom        0.001010      0.000242     -0.001252
    24   Atom       -0.000480      0.000743     -0.000263
    25   Atom        0.001944     -0.002276      0.000331
    26   Atom        0.004181     -0.004287      0.000106
    27   Atom       -0.002194      0.003171     -0.000977
    28   Atom       -0.003512      0.002797      0.000715
    29   Atom        0.005778      0.000188     -0.005965
    30   Atom       -0.000575     -0.004150      0.004725
    31   Atom        0.001165      0.002172     -0.003337
    32   Atom       -0.005032      0.002456      0.002575
    33   Atom       -0.021391     -0.003879      0.025270
    34   Atom        0.018245     -0.031541      0.013296
 --------------------------------------------------------
                        XY            XZ            YZ
 --------------------------------------------------------
     1   Atom        0.000751     -0.001512     -0.000371
     2   Atom        0.004670      0.003770      0.013529
     3   Atom        0.001844      0.001342      0.027070
     4   Atom        0.004966     -0.023310     -0.002199
     5   Atom        0.009855     -0.032584     -0.039040
     6   Atom        0.059734      0.018579      0.016681
     7   Atom        0.006136      0.003457      0.016124
     8   Atom       -0.041982     -0.110210      0.026980
     9   Atom       -0.010403     -0.090745      0.006554
    10   Atom       -0.271032     -0.603232      0.123060
    11   Atom        0.026579     -0.122981     -0.029976
    12   Atom       -0.116224     -0.322454      0.131044
    13   Atom       -0.008264     -0.068562      0.008097
    14   Atom        0.001612     -0.000877     -0.001070
    15   Atom        0.000592     -0.000373     -0.001933
    16   Atom        0.000845     -0.000114     -0.000657
    17   Atom        0.001756      0.000045      0.000565
[...]
 1,-0.00010912,0.00037392,-0.00012437,0.00000385,0.00035722,-0.00010722
 ,-0.00016994,-0.00004849,-0.00005129,-0.00001663,0.00001317,0.00002268
 ,0.00002276,0.00005299,-0.00002895,0.00004218,-0.00001006,0.00001925,0
 .00001648,-0.00000945,-0.00000835,-0.00010813,0.00000031,-0.00001138,-
 0.00000475,0.00001479,0.00001113,0.00001760,-0.00000288,-0.00002141,0.
 00000470,-0.00000177,-0.00009719,0.00003183,0.00002704,-0.00003806,-0.
 07799224,0.20854496,-0.00063890,0.00085050,0.00058027,0.00068002,0.000
 12975,0.00011939,0.00001907,-0.00019408,0.00008555,0.00019901,-0.00001
 906,0.00013478,-0.00002475,-0.00001428,0.00045260,0.06779071,-0.138875
 81,-0.16638529,-0.00096799,-0.00025575,-0.00058965,-0.00788776,0.00671
 857,0.00479228,-0.00207605,0.00076898,-0.00070498,-0.00111431,0.000556
 01,0.00009148,0.00034213,-0.00027368,0.00119169,0.00092531,-0.00099948
 ,0.00015574,-0.00034433,0.00056002,-0.00078137,-0.00002331,-0.00044572
 ,0.00035136,-0.00002304,0.00002623,0.00000515,-0.00006058,-0.00003535,
 -0.00000638,-0.00043593,-0.00012789,-0.00002975,-0.00018853,-0.0000407
 2,0.00024152,0.00019604,-0.00007998,0.00000217,0.00003358,0.00004738,0
 .00002401,0.00000924,0.00002175,0.00001035,-0.00003271,0.00000563,-0.0
 0001734,-0.00006635,0.00003020,0.00003038,-0.00006112,-0.00003425,0.00
 001025,0.00002348,-0.00002770,-0.00001708,0.00004859,-0.00001678,-0.00
 004408,0.00000945,0.00002060,-0.00011309,-0.00000163,-0.00001730,-0.00
 002767,-0.06388541,0.14931086,0.17249330,-0.00206602,-0.00278234,-0.00
 131482,0.00107731,-0.00105695,0.00227359,0.00012702,0.00025989,-0.0000
 6135,-0.00033419,0.00008099,-0.00023074,0.00016751,0.00010114,-0.00120
 694,-0.04810672,-0.00240865,0.01992704,-0.00841967,-0.01224462,0.01526
 617,-0.00224622,0.01983765,-0.01994696,0.00440575,-0.00369527,-0.00657
 795,-0.00015447,-0.00010866,0.00024270,-0.00085090,-0.00080222,0.00191
 048,-0.00108954,0.00290842,-0.00053292,0.00030905,-0.00127654,0.001392
 11,0.00017425,-0.00002050,-0.00036975,0.00017516,0.00003486,-0.0000043
 8,-0.00003712,-0.00053673,0.00095893,0.00002158,0.00003065,0.00010027,
 0.00015101,0.00015359,-0.00015292,-0.00036096,0.00016346,-0.00117742,-
 0.00004655,-0.00005018,-0.00004742,-0.00001687,-0.00001884,0.00000858,
 0.,0.00000448,-0.00000235,0.00012616,-0.00006024,-0.00007123,0.0001203
 9,0.00007271,-0.00002013,-0.00003594,0.00003528,0.00003112,-0.00006647
 ,0.00009554,0.00014372,-0.00005596,0.00002164,0.00029812,-0.00006242,-
 0.00009922,0.00031810,-0.00016665,-0.00454965,0.00770555,0.06152019,-0
 .00255045,-0.00314033,-0.00207628,0.00123234,0.00154477,0.00052566,0.0
 0005888,-0.00000498,0.00003045,0.00006160,-0.00000977,-0.00003603,0.00
 002345,-0.00001926,0.00011281,0.00019103,-0.07477606,0.06166175,-0.008
 80567,-0.01380907,0.02077015,0.00024844,-0.00880379,0.00730028,-0.0008
 9565,-0.00005041,0.00325755,-0.00019535,0.00020084,-0.00046027,0.00018
 690,0.00020803,-0.00082915,0.00025906,-0.00021541,-0.00038294,-0.00011
 840,0.00004694,0.00001556,-0.00006387,0.00021671,-0.00029529,0.0001959
 5,0.00015578,-0.00030894,-0.00017117,-0.00027655,0.00117241,-0.0000242
 8,0.00003210,-0.00021524,0.00060732,-0.00011781,0.00008177,-0.00049014
 ,0.00048104,-0.00054111,0.00001609,-0.00002607,-0.00002396,-0.00001062
 ,-0.00001743,0.00002710,-0.00003183,0.00001277,-0.00003205,-0.00000979
 ,0.00000907,0.00001501,-0.00000880,-0.00001061,0.00001483,-0.00000921,
 0.00000169,0.00000409,0.00001316,-0.00002305,-0.00002923,0.00000423,0.
 00001845,-0.00002820,-0.00002199,0.00000029,-0.00006022,0.00123037,0.0
 1000701,-0.01877339,0.00604749,0.08722989,-0.00032704,-0.00017232,0.00
 049244,-0.00085211,-0.00194124,0.00148394,0.00004988,0.00001165,0.0000
 3403,0.00001104,0.00002705,-0.00000972,0.00002950,0.00001422,-0.000099
 99,0.01637883,0.06346011,-0.21864766,-0.00022425,0.00000279,-0.0001092
 7,-0.00003503,0.00399896,-0.00505282,0.00138524,-0.00098215,-0.0009771
 2,-0.00022340,-0.00009797,0.00016223,-0.00044736,-0.00065226,0.0010348
 1,-0.00017609,0.00029485,0.00009850,-0.00003430,-0.00017070,0.00004018
 ,-0.00020094,0.00007041,0.00030578,0.00002819,-0.00007782,-0.00003104,
 -0.00011887,0.00005869,0.00024425,0.00002352,0.00016708,-0.00019003,-0
 .00017685,-0.00004335,0.00017215,0.00055139,0.00026109,0.00010782,-0.0
 0000265,-0.00000367,-0.00000451,-0.00000632,-0.00000856,-0.00000287,-0
 .00001310,0.00000308,-0.00001064,0.00000908,-0.00000039,-0.00000266,-0
 .00001611,0.00000438,-0.00000336,-0.00000698,0.00000895,0.00000733,-0.
 00000859,0.00001059,0.00001971,-0.00000896,-0.00000886,0.00001976,0.00
 000339,-0.00001251,0.00004069,0.00125665,0.00899700,-0.01320233,-0.015
 59247,-0.07251717,0.23329646,-0.00505373,0.00714669,0.00615794,-0.0165
 6184,0.01626815,0.01248054,0.00030408,0.00012693,0.00023027,0.00097557
 ,0.00059395,0.00009254,0.00017523,0.00001177,0.00076682,0.00563750,-0.
 02345056,-0.01393473,-0.14451957,0.14478732,0.10530272,-0.00070208,0.0
 0134337,0.00052594,-0.00071855,-0.00063058,-0.00121786,0.00201671,0.00
 007843,0.00069585,-0.00024073,0.00015812,0.00028052,-0.00212040,0.0015
 0730,0.00004784,-0.00191269,-0.00036627,-0.00057771,0.00013207,-0.0015
 5017,0.00191462,0.00099556,-0.00048929,-0.00049582,-0.00001710,0.00013
 048,-0.00023964,-0.00273761,0.00099595,-0.00335212,0.00075069,0.000299
 24,0.00023304,0.00090901,-0.00054584,-0.00033385,-0.00000285,-0.000024
 56,-0.00001745,0.00001544,-0.00011234,-0.00000902,-0.00011204,-0.00000
 906,-0.00003364,0.00005225,-0.00002453,0.00000722,-0.00059749,-0.00002
 940,-0.00007897,-0.00012569,0.00012660,0.00012207,0.00007411,-0.000033
 58,-0.00007754,0.00002994,0.00002811,-0.00027866,0.00002237,0.00000880
 ,-0.00009755,-0.00248045,-0.00406118,-0.00019172,0.00068133,0.00090504
 ,-0.00004922,0.16474413,-0.00835851,0.01067439,0.01081917,0.00348471,-
 0.00597915,-0.00394932,-0.00008179,-0.00004294,-0.00016922,-0.00002649
 ,-0.00013922,0.00010220,-0.00008348,-0.00008348,0.00022599,0.00848176,
 -0.02276561,-0.01481453,0.14335436,-0.20828054,-0.13197636,-0.00001923
 ,0.00137447,-0.00032802,-0.00176211,-0.00081438,-0.00136525,0.00049818
 ,0.00056603,0.00078830,-0.00011952,0.00002554,0.00039496,0.00219725,-0
 .00086188,0.00084675,0.00040725,0.00099266,-0.00013515,-0.00140871,-0.
 00012383,0.00322537,-0.00009063,0.00068687,-0.00047302,-0.00008915,0.0
 0022118,-0.00049415,0.00098243,0.00095425,0.00153630,-0.00050637,0.001
 08791,0.00028065,-0.00018686,-0.00003983,-0.00020479,-0.00001396,0.000
 04152,0.00004524,-0.00006542,-0.00008925,-0.00000580,-0.00001434,-0.00
 000792,0.00005325,-0.00003243,0.00000384,0.00000011,0.00002128,-0.0000
 2366,-0.00003758,0.00002404,-0.00002221,-0.00002187,0.00001041,-0.0000
 1466,-0.00003014,0.00000792,0.00000381,-0.00002068,0.00001107,0.000009
 26,-0.00006286,-0.00382802,-0.00289410,0.00051077,0.00068020,0.0003929
 5,0.00013622,-0.14343823,0.22523846,0.01524909,-0.01661135,-0.01786646
 ,-0.01361695,0.01475426,0.01033571,-0.00008463,-0.00014968,0.00003099,
 0.00051872,0.00018210,0.00015388,0.00005537,-0.00008358,0.00073487,0.0
 0178597,-0.00726641,-0.00355888,0.10408902,-0.12978811,-0.12769753,-0.
 00069173,0.00061345,0.00092995,-0.00082833,-0.00163797,-0.00010711,0.0
 0089917,0.00047965,0.00036602,0.00000072,0.00033326,-0.00009128,0.0019
 1255,0.00029746,0.00032166,-0.00129381,0.00065165,-0.00056012,0.002282
 02,0.00243563,-0.00490455,-0.00003869,-0.00032682,0.00097205,0.0001485
 7,0.00014543,0.00044837,-0.00317277,0.00113383,-0.00186295,0.00085483,
 0.00024876,0.00030321,0.00065898,-0.00019340,0.00076310,0.00006163,-0.
 00000798,-0.00002046,0.00009800,0.00014962,0.00008285,0.00004752,-0.00
 001075,-0.00003128,0.00000257,-0.00000035,0.00002177,-0.00026915,-0.00
 003753,-0.00004011,-0.00000881,0.00004058,0.00002585,0.00007817,-0.000
 01939,-0.00004267,0.00000880,0.00005849,-0.00030551,0.00004753,0.00001
 321,-0.00010608,-0.00054480,-0.00103050,0.00067010,-0.00046441,0.00042
 878,0.00041807,-0.10788323,0.13535022,0.14098864,-0.00160252,0.0010059
 6,-0.00096752,-0.00034803,-0.00062174,0.00018303,-0.00039592,-0.000322
 42,-0.00002215,0.00091141,0.00008182,0.00042634,-0.00030936,0.00000722
 ,0.00291185,0.00201010,0.01515160,-0.02173777,0.00275640,0.00184173,0.
 00062167,-0.04596048,-0.00863812,-0.00396995,-0.00291934,0.00046140,0.
 01802760,-0.00541313,-0.01365739,0.01416096,-0.00124323,0.00053004,0.0
 0155655,0.00052434,-0.00555032,0.00147012,-0.00067848,0.00273039,-0.00
 179528,-0.00002799,-0.00000577,-0.00002103,-0.00018539,-0.00148662,0.0
 0082763,0.00060178,-0.00039906,0.00049153,0.00015698,0.00007762,0.0000
 5367,-0.00010534,0.00008239,-0.00018594,0.00016621,-0.00005257,0.00022
 358,0.00007171,0.00007842,0.00008931,0.00001830,0.00001465,-0.00003186
 ,0.00005422,-0.00003229,0.00006522,-0.00020475,0.00009734,0.00015400,-
 0.00052338,-0.00017144,-0.00003921,-0.00003093,0.00003592,0.00002153,0
 .00002715,-0.00033464,-0.00034349,0.00002545,-0.00029735,-0.00071510,0
 .00019138,0.00025291,-0.00111298,0.00027122,-0.00004587,0.00052005,-0.
 00404968,0.00235401,-0.00049471,-0.00025367,-0.00037527,-0.00026078,0.
 05536513,-0.00049762,0.00010607,-0.00037185,0.00045313,0.00016216,0.00
 014081,0.00003185,0.00026870,-0.00008841,-0.00098648,-0.00020007,-0.00
 028914,-0.00002753,0.00031189,-0.00263815,0.00302564,-0.00246918,0.005
 52520,-0.00166351,-0.00102372,-0.00068876,-0.01298110,-0.19104012,0.14
 913750,0.00337579,-0.00224811,-0.01044581,-0.00778718,-0.01695999,0.01
 380588,0.00191607,0.00044165,-0.00161184,0.00198398,0.00055131,-0.0077
 5323,0.00185570,-0.00161483,0.00107565,0.00013927,-0.00006196,0.000106
 97,-0.00059169,0.00021531,0.00023537,0.00007350,-0.00002686,-0.0001787
 9,-0.00008321,-0.00004332,-0.00001443,-0.00003027,-0.00007145,0.000087
 56,0.00001610,0.00006605,-0.00006442,-0.00004194,-0.00003149,-0.000018
 15,-0.00005861,-0.00003670,-0.00001962,-0.00000739,-0.00000911,0.00004
 108,0.00019495,-0.00009384,-0.00012977,0.00045443,0.00013684,-0.000042
 09,0.00001929,0.00001104,-0.00001442,-0.00013055,0.00023955,0.00030665
 ,-0.00016033,-0.00014523,0.00077422,0.00009336,-0.00027462,0.00104287,
 0.00036034,0.00031776,-0.00009629,-0.00012209,0.00025777,-0.00095256,0
 .00026433,0.00010117,-0.00001122,0.01243617,0.21499036,0.00064216,-0.0
 0015533,0.00011944,0.00123711,0.00062595,-0.00005248,-0.00004809,0.000
 61462,-0.00031599,-0.00120004,-0.00002601,-0.00046815,0.00050868,0.000
 20689,-0.00243154,0.00301908,0.00406378,-0.00648925,-0.00156207,-0.000
 97614,-0.00057196,0.00644226,0.14996288,-0.17159823,0.00759131,0.00584
 309,-0.02810372,-0.00712985,-0.01578866,0.01213868,0.00281697,-0.00178
 550,-0.00251209,-0.00113835,0.00662977,-0.00061076,0.00254711,-0.00356
 727,0.00310798,0.00015659,-0.00004369,0.00010279,0.00007461,-0.0000743
 6,0.00065975,-0.00004706,0.00001587,-0.00003058,-0.00016266,-0.0000621
 7,-0.00001873,-0.00010208,-0.00033048,0.00034338,-0.00006487,-0.000009
 39,0.00005328,-0.00007174,-0.00005164,-0.00010037,-0.00006862,-0.00007
 593,-0.00001182,0.00005121,0.00003394,0.00010806,0.00030783,-0.0001381
 0,-0.00019018,0.00053322,0.00015305,-0.00004553,-0.00002340,-0.0000040
 4,-0.00001396,-0.00023545,0.00006593,0.00018691,-0.00009626,0.00000757
 ,0.00066583,-0.00042665,0.00001800,0.00029379,0.00062392,0.00042280,0.
 00015809,-0.00270046,0.00110380,0.00062429,0.00024935,0.00001541,-0.00
 013716,-0.00917976,-0.14466729,0.19578706,0.00041609,0.00003310,0.0001
 7850,0.00052287,0.00082372,0.00004824,0.00017366,0.00023620,-0.0000999
 4,-0.00086310,-0.00031472,-0.00044181,0.00024145,0.00002783,-0.0019900
 8,0.00256919,0.00281033,0.00077876,-0.00127937,-0.00174325,-0.00065312
 ,-0.00494662,-0.00377587,0.01986612,0.00231134,-0.00926861,-0.00145464
 ,-0.16148784,-0.13629240,0.21213506,-0.00222801,0.00186836,0.00018872,
 0.00003061,0.00356978,-0.00168683,0.00103591,-0.00077072,0.00210465,-0
 .00001126,0.00003347,0.00004944,-0.00011879,-0.00001003,-0.00002341,0.
 00000149,0.00008281,-0.00011874,-0.00011976,-0.00006766,-0.00004057,0.
 00011015,-0.00018741,0.00020955,-0.00005450,-0.00004290,-0.00004795,-0
 .00006090,-0.00008078,-0.00006613,-0.00004280,-0.00005174,-0.00000279,
 -0.00004672,0.00001653,-0.00004307,0.00014337,-0.00004113,-0.00004654,
 0.00047696,0.00009932,0.00002639,0.00001009,0.00000583,-0.00002269,-0.
 00015215,0.00010169,0.00022212,-0.00005044,0.00001196,0.00061236,-0.00
 016075,-0.00016646,0.00037963,-0.00040634,-0.00000288,-0.00017855,-0.0
 0085516,-0.00013161,-0.00063953,0.00030051,0.00019858,0.00016543,0.000
 46217,-0.00168493,-0.00326156,0.15227518,-0.00017554,-0.00022322,-0.00
 033834,-0.00006014,0.00114214,-0.00021775,-0.00158097,-0.00050941,-0.0
 0014432,0.00207740,0.00101642,0.00159726,-0.00082923,-0.00040873,0.006
 27383,-0.00329668,-0.00028867,-0.00286248,0.00082715,-0.00145840,0.000
 34998,-0.00490374,-0.02109787,0.01812408,-0.00569172,0.00819539,0.0027
 4325,-0.10971900,-0.09083225,0.16795291,0.00267961,-0.00009154,0.00022
 301,0.00178671,-0.00720312,0.00092343,-0.00133314,0.00277816,-0.005237
 83,0.00001334,0.00001983,-0.00006909,-0.00001850,0.00031905,-0.0002141
 6,-0.00015184,-0.00001513,0.00014677,-0.00028139,-0.00002232,-0.000219
 62,-0.00007668,-0.00035348,0.00041330,0.00017564,0.00017949,0.00021839
 ,0.00032942,0.00029417,0.00022116,0.00009524,0.00004992,0.00000661,0.0
 0032640,-0.00009075,0.00037602,-0.00014700,0.00011762,0.00019483,-0.00
 160089,-0.00041839,-0.00029776,-0.00003549,0.00010824,0.00002604,0.000
 52493,-0.00028187,-0.00073273,0.00011883,-0.00003380,-0.00180909,0.000
 49147,0.00028615,-0.00114437,0.00152934,0.00033433,0.00022331,-0.00010
 990,0.00044127,0.00024926,-0.00001239,-0.00010615,-0.00001646,-0.00606
 412,-0.00189523,-0.00095127,0.12978334,0.10968146,-0.00010827,-0.00000
 713,0.00007311,-0.00037277,0.00012045,-0.00005059,0.00078619,-0.000430
 29,0.00059026,0.00055950,-0.00022397,-0.00005354,-0.00016619,0.0003763
 4,0.00080825,-0.00082146,0.00148093,0.00187785,0.00053571,0.00006779,0
 .00030358,-0.00695187,-0.01917457,0.00827226,-0.00474463,0.00438642,0.
 00811443,0.20042918,0.19407177,-0.37951485,0.00285698,0.00241438,-0.00
 139055,0.00124645,-0.00107413,-0.00015659,-0.00124111,0.00032512,-0.00
 221166,-0.00004496,-0.00000168,-0.00005175,-0.00002621,0.00008902,-0.0
 0016520,-0.00001194,0.00001326,-0.00001642,0.00003813,-0.00000210,0.00
 000075,0.00009819,0.00003563,-0.00005603,0.00000597,-0.00003099,-0.000
 00655,-0.00001151,-0.00001207,-0.00001045,-0.00002123,0.00001722,0.000
 01076,-0.00024123,0.00005450,-0.00025276,-0.00029555,0.00013604,0.0001
 5613,-0.00004207,-0.00005325,0.00021023,0.00001795,-0.00005191,0.00000
 317,0.00014652,-0.00008356,-0.00017513,0.00004830,0.00004973,-0.000170
 40,-0.00007868,-0.00001858,-0.00007059,-0.00088091,-0.00012549,-0.0002
 5755,0.00048177,-0.00008909,-0.00031268,-0.00000937,0.00008823,0.00008
 363,-0.00253608,-0.00174928,0.00045937,-0.19996215,-0.19581620,0.38096
 371,0.00007063,-0.00004307,-0.00019954,0.00025978,0.00155286,-0.000064
 10,-0.00017434,-0.00013092,-0.00000145,-0.00026619,-0.00034547,0.00000
 241,-0.00024529,-0.00009072,-0.00000790,-0.00323479,0.00043808,-0.0018
 4140,-0.00028553,-0.00201232,-0.00011078,0.00035915,0.00780958,-0.0049
 6078,-0.00191708,0.00029132,0.00005556,-0.22952788,0.04996166,-0.16424
 135,-0.00034494,0.00029487,0.00065681,-0.00011729,-0.00109514,0.000404
 45,0.00086628,0.00068907,-0.00040505,-0.00007109,0.00009109,-0.0000371
 5,-0.00006496,-0.00007443,-0.00014452,-0.00001296,-0.00001473,0.000128
 44,-0.00033858,-0.00006717,-0.00018589,0.00005394,-0.00043224,0.000451
 70,0.00010628,0.00004169,0.00013272,0.00004882,0.00001643,0.00002050,-
 0.00002573,-0.00002978,-0.00000911,-0.00001321,-0.00000003,-0.00000432
 ,-0.00006560,0.00006338,0.00010513,0.00010973,-0.00004938,0.00001022,0
 .00002654,0.00002935,-0.00003653,-0.00002406,0.00004053,0.00004240,-0.
 00001103,-0.00008143,0.00004539,0.00016605,0.00001552,-0.00003597,0.00
 032193,-0.00009151,-0.00029924,-0.00003520,-0.00009654,-0.00007184,0.0
 0033999,0.00014111,0.00019344,0.00063768,0.00016053,0.00071757,0.01180
 347,-0.00467046,0.01131730,0.22160548,-0.00019691,-0.00016788,-0.00019
 462,-0.00016699,-0.00110856,0.00011637,-0.00090433,0.00005776,-0.00021
 645,0.00069086,0.00075560,0.00082845,-0.00027958,-0.00001395,0.0021537
 0,-0.00035391,-0.00715864,-0.00210561,-0.00085054,0.00225708,-0.000808
 73,-0.01667771,0.01808609,-0.01182614,-0.00070084,-0.00393205,-0.00380
 110,0.05483791,-0.07797273,0.07470251,-0.00051685,-0.00058095,0.000415
 86,0.00133535,-0.00115295,-0.00081719,-0.00037010,0.00024137,-0.001570
 33,0.00012721,0.00000342,0.00005810,0.00010993,0.00005023,0.00017321,-
 0.00006438,-0.00000775,0.00003114,0.00001899,0.00003258,0.00000739,-0.
 00035977,0.00004521,-0.00013859,0.00003965,0.00007126,0.00003709,0.000
 12783,0.00013119,0.00009820,0.00005461,0.00003670,-0.00000529,0.000255
 27,-0.00006398,0.00026883,0.00012476,-0.00004367,-0.00004112,-0.000722
 68,-0.00012728,-0.00021493,0.00001279,0.00003984,0.00000767,0.00032354
 ,-0.00005098,-0.00031009,0.00003289,0.00012860,-0.00059187,0.00003032,
 -0.00011093,-0.00009181,0.00119679,0.00029033,0.00054695,-0.00058541,0
 .00004322,-0.00013486,-0.00000261,-0.00008548,-0.00012489,0.00081539,0
 .00006820,-0.00107612,0.01493027,0.00036669,0.01521747,-0.05231176,0.0
 6987242,-0.00023454,-0.00032386,-0.00020953,-0.00005789,-0.00161354,0.
 00006386,-0.00179382,-0.00003907,-0.00043276,0.00193936,0.00144064,0.0
 0150473,-0.00074864,-0.00025401,0.00551264,0.00196573,-0.00722425,-0.0
 0051529,-0.00003201,0.00305063,-0.00052748,-0.00584117,0.01210590,0.00
 325631,0.00148860,-0.00361343,-0.00409316,-0.13167287,0.05960694,-0.15
 803651,-0.00068032,-0.00128538,0.00058247,0.00174541,-0.00255024,-0.00
 147657,-0.00098895,0.00116539,-0.00314886,0.00022248,-0.00005301,0.000
 09757,0.00011049,0.00019399,0.00027657,-0.00011838,0.00001300,-0.00000
 018,0.00011390,0.00005375,0.00004921,-0.00043112,0.00016778,-0.0002280
 5,0.00000868,0.00012225,0.00000966,0.00027235,0.00027200,0.00018166,0.
 00010208,0.00004124,-0.00000908,0.00044637,-0.00010382,0.00051857,0.00
 014068,-0.00004257,0.00005253,-0.00170473,-0.00034723,-0.00044348,-0.0
 0011936,0.00020846,0.00009143,0.00055894,-0.00024531,-0.00073545,0.000
 07636,-0.00004262,-0.00162786,0.00045626,0.00017372,-0.00084797,0.0017
 9196,0.00049589,0.00057612,-0.00058366,0.00017660,0.00005425,-0.000229
 20,-0.00033040,-0.00031856,0.00160895,-0.00043425,-0.00110620,-0.02618
 485,0.00980802,-0.01700422,0.15837290,-0.07059320,0.17793364\\-0.05431
 049,-0.02274831,-0.00205093,0.02167323,0.03540560,-0.01850022,0.012118
 80,-0.03065068,0.02648426,-0.02449913,-0.05711958,-0.02150381,-0.04251
 331,0.01453387,0.02087335,0.03197103,0.01939453,0.03838151,0.01446844,
 -0.02022368,-0.03654525,-0.02147979,-0.03567671,-0.04100270,-0.0551036
 3,0.01685378,0.02849580,0.00778721,0.08100432,-0.00987385,0.01323502,-
 0.01377274,-0.00266646,0.04655442,-0.06834872,0.00773185,-0.02237363,0
 .05988440,-0.03078645,0.00613083,0.00137037,-0.01698628,0.01957502,-0.
 00047962,-0.00826093,0.00349051,0.00352471,0.01338875,0.00093948,-0.00
 430708,-0.01251047,-0.01348981,-0.03346700,0.01761204,-0.00217939,0.00
 018527,0.03260462,-0.00278513,0.01432138,-0.03826571,-0.00407940,0.002
 34754,0.00100318,-0.00696821,0.01673749,-0.00217163,0.01556974,0.00638
 010,-0.02269507,-0.01209244,0.05940202,0.03651611,0.01061864,0.0028008
 4,0.01204229,0.00343453,-0.00946494,0.01677171,0.03510154,-0.00103824,
 -0.00920499,0.00740389,-0.00460760,0.00144211,0.00804056,-0.00465204,-
 0.00486102,-0.00723527,0.00103349,-0.02672285,-0.01355514,0.02403849,0
 .02506060,0.01250688,-0.01240262,-0.01380412,-0.01253631,-0.03766506,0
 .04336576,0.02458132,-0.00259355,-0.00336120\\\@


      SCIENCE SANS CONSCIENCE N'EST QUE RUINE DE L'AME.

                                                  -- RABELAIS
 Job cpu time:       0 days  3 hours 48 minutes  8.1 seconds.
 Elapsed time:       0 days  0 hours 28 minutes 31.6 seconds.
 File lengths (MBytes):  RWF=    635 Int=      0 D2E=      0 Chk=     11 Scr=      1
 Normal termination of Gaussian 16 at Wed Feb 24 21:36:08 2021.
