 Entering Gaussian System, Link 0=g16
 Input=trj494full_hp.com
 Output=trj494full_hp.log
 Initial command:
 /share/apps/g16/l1.exe "/scratch/Gau-12680.inp" -scrdir="/scratch/"
 Entering Link 1 = /share/apps/g16/l1.exe PID=     12684.
  
 Copyright (c) 1988,1990,1992,1993,1995,1998,2003,2009,2016,
            Gaussian, Inc.  All Rights Reserved.
  
 This is part of the Gaussian(R) 16 program.  It is based on
 the Gaussian(R) 09 system (copyright 2009, Gaussian, Inc.),
 the Gaussian(R) 03 system (copyright 2003, Gaussian, Inc.),
 the Gaussian(R) 98 system (copyright 1998, Gaussian, Inc.),
 the Gaussian(R) 94 system (copyright 1995, Gaussian, Inc.),
 the Gaussian 92(TM) system (copyright 1992, Gaussian, Inc.),
 the Gaussian 90(TM) system (copyright 1990, Gaussian, Inc.),
 the Gaussian 88(TM) system (copyright 1988, Gaussian, Inc.),
 the Gaussian 86(TM) system (copyright 1986, Carnegie Mellon
 University), and the Gaussian 82(TM) system (copyright 1983,
 Carnegie Mellon University). Gaussian is a federally registered
 trademark of Gaussian, Inc.
  
 This software contains proprietary and confidential information,
 including trade secrets, belonging to Gaussian, Inc.
  
 This software is provided under written license and may be
 used, copied, transmitted, or stored only in accord with that
 written license.
  
 The following legend is applicable only to US Government
 contracts under FAR:
  
                    RESTRICTED RIGHTS LEGEND
  
 Use, reproduction and disclosure by the US Government is
 subject to restrictions as set forth in subparagraphs (a)
 and (c) of the Commercial Computer Software - Restricted
 Rights clause in FAR 52.227-19.
  
 Gaussian, Inc.
 340 Quinnipiac St., Bldg. 40, Wallingford CT 06492
  
  
 ---------------------------------------------------------------
 Warning -- This program may not be used in any manner that
 competes with the business of Gaussian, Inc. or will provide
 assistance to any competitor of Gaussian, Inc.  The licensee
 of this program is prohibited from giving any competitor of
 Gaussian, Inc. access to this program.  By using this program,
 the user acknowledges that Gaussian, Inc. is engaged in the
 business of creating and licensing software in the field of
 computational chemistry and represents and warrants to the
 licensee that it is not a competitor of Gaussian, Inc. and that
 it will not use this program in any manner prohibited above.
 ---------------------------------------------------------------
  

 Cite this work as:
 Gaussian 16, Revision A.03,
 M. J. Frisch, G. W. Trucks, H. B. Schlegel, G. E. Scuseria, 
 M. A. Robb, J. R. Cheeseman, G. Scalmani, V. Barone, 
 G. A. Petersson, H. Nakatsuji, X. Li, M. Caricato, A. V. Marenich, 
 J. Bloino, B. G. Janesko, R. Gomperts, B. Mennucci, H. P. Hratchian, 
 J. V. Ortiz, A. F. Izmaylov, J. L. Sonnenberg, D. Williams-Young, 
 F. Ding, F. Lipparini, F. Egidi, J. Goings, B. Peng, A. Petrone, 
 T. Henderson, D. Ranasinghe, V. G. Zakrzewski, J. Gao, N. Rega, 
 G. Zheng, W. Liang, M. Hada, M. Ehara, K. Toyota, R. Fukuda, 
 J. Hasegawa, M. Ishida, T. Nakajima, Y. Honda, O. Kitao, H. Nakai, 
 T. Vreven, K. Throssell, J. A. Montgomery, Jr., J. E. Peralta, 
 F. Ogliaro, M. J. Bearpark, J. J. Heyd, E. N. Brothers, K. N. Kudin, 
 V. N. Staroverov, T. A. Keith, R. Kobayashi, J. Normand, 
 K. Raghavachari, A. P. Rendell, J. C. Burant, S. S. Iyengar, 
 J. Tomasi, M. Cossi, J. M. Millam, M. Klene, C. Adamo, R. Cammi, 
 J. W. Ochterski, R. L. Martin, K. Morokuma, O. Farkas, 
 J. B. Foresman, and D. J. Fox, Gaussian, Inc., Wallingford CT, 2016.
 
 ******************************************
 Gaussian 16:  ES64L-G16RevA.03 25-Dec-2016
                24-Feb-2021 
 ******************************************
 %nprocshared=8
 Will use up to    8 processors via shared memory.
 %mem=4000MB
 %chk=305_73scan.chk
 ---------------------------------------------------------
 # freq=hpmodes em=gd3bj int=ultrafine pbe1pbe scf=xqc svp
 ---------------------------------------------------------
 1/10=4,30=1,38=1/1,3;
 2/12=2,17=6,18=5,40=1/2;
 3/5=18,7=101,11=2,25=1,30=1,71=2,74=-13,75=-5,124=41,140=1/1,2,3;
 4//1;
 5/5=2,8=3,13=1,38=5,98=1/2,8;
 8/6=4,10=90,11=11/1;
 11/6=1,8=1,9=11,15=111,16=1/1,2,10;
 10/6=1/2;
 6/7=2,8=2,9=2,10=2,28=1/1;
 7/8=11,10=1,25=1/1,2,3,16;
 1/10=4,30=1/3;
 99//99;
 -------------------
 Title Card Required
 -------------------
 Symbolic Z-matrix:
 Charge =  1 Multiplicity = 2
 C                    -1.18891   7.54666  -0.31233 
 C                    -2.40542   9.49608  -1.22317 
 C                     1.50413   4.37484  -1.7176 
 C                     4.3566    5.21278  -1.47271 
 C                     2.72709   5.68167   1.271 
 C                    -0.09463   9.8071   -0.41066 
 C                    -1.07033   8.80365  -1.06371 
 C                     1.35669   9.18027  -0.10195 
 C                     2.03156   8.4904   -1.28469 
 N                     2.3323    10.23986   0.11772 
 O                     2.42537   9.11571  -2.2319 
 O                     2.22336   7.17951  -1.13767 
 Si                    2.69847   5.67664  -0.77088 
 H                    -1.19493   7.81926   0.74063 
 H                    -0.23585   6.94541  -0.40888 
 H                    -2.05309   6.91615  -0.55904 
 H                    -2.72967   9.89393  -0.24509 
 H                    -3.12174   8.95313  -1.74908 
 H                    -2.09312   10.27998  -1.96155 
 H                     1.29037   4.55931  -2.82014 
 H                     0.50992   4.25868  -1.215 
 H                     2.04308   3.37284  -1.72499 
 H                     4.43918   4.32659  -2.28655 
 H                     5.06503   4.98684  -0.68243 
 H                     4.89332   5.9881   -2.02047 
 H                     3.1958    4.74207   1.4981 
 H                     1.71886   5.92438   1.67653 
 H                     3.42747   6.44466   1.64647 
 H                    -0.51856   10.25542   0.44848 
 H                     0.07021   10.65155  -1.08962 
 H                    -0.66335   8.57738  -1.96258 
 H                     1.17957   8.60019   0.81088 
 H                     1.88669   11.0902   0.61791 
 H                     2.66072   10.59793  -0.70033 
 

 GradGradGradGradGradGradGradGradGradGradGradGradGradGradGradGradGradGrad
 Berny optimization.
 Initialization pass.
 Trust Radius=3.00D-01 FncErr=1.00D-07 GrdErr=1.00D-07 EigMax=2.50D+02 EigMin=1.00D-04
 Number of steps in this run=      2 maximum allowed number of steps=      2.
 GradGradGradGradGradGradGradGradGradGradGradGradGradGradGradGradGradGrad

                          Input orientation:                          
 ---------------------------------------------------------------------
 Center     Atomic      Atomic             Coordinates (Angstroms)
 Number     Number       Type             X           Y           Z
 ---------------------------------------------------------------------
      1          6           0       -1.188908    7.546663   -0.312326
      2          6           0       -2.405419    9.496078   -1.223166
      3          6           0        1.504133    4.374838   -1.717595
      4          6           0        4.356596    5.212778   -1.472705
      5          6           0        2.727085    5.681668    1.270999
      6          6           0       -0.094627    9.807101   -0.410662
      7          6           0       -1.070333    8.803649   -1.063714
      8          6           0        1.356688    9.180273   -0.101947
      9          6           0        2.031561    8.490398   -1.284691
     10          7           0        2.332296   10.239857    0.117718
     11          8           0        2.425367    9.115709   -2.231902
     12          8           0        2.223355    7.179508   -1.137668
     13         14           0        2.698472    5.676642   -0.770875
     14          1           0       -1.194926    7.819262    0.740625
     15          1           0       -0.235846    6.945411   -0.408878
     16          1           0       -2.053091    6.916148   -0.559038
     17          1           0       -2.729666    9.893926   -0.245093
     18          1           0       -3.121742    8.953127   -1.749081
     19          1           0       -2.093123   10.279983   -1.961548
     20          1           0        1.290368    4.559313   -2.820142
     21          1           0        0.509924    4.258677   -1.214997
     22          1           0        2.043077    3.372844   -1.724988
     23          1           0        4.439177    4.326586   -2.286550
     24          1           0        5.065033    4.986838   -0.682432
     25          1           0        4.893321    5.988095   -2.020465
     26          1           0        3.195799    4.742066    1.498099
     27          1           0        1.718863    5.924384    1.676533
     28          1           0        3.427473    6.444657    1.646473
     29          1           0       -0.518564   10.255422    0.448479
     30          1           0        0.070205   10.651552   -1.089615
     31          1           0       -0.663350    8.577379   -1.962583
     32          1           0        1.179570    8.600190    0.810883
     33          1           0        1.886692   11.090199    0.617906
     34          1           0        2.660722   10.597933   -0.700332
 ---------------------------------------------------------------------
                    Distance matrix (angstroms):
                    1          2          3          4          5
     1  C    0.000000
     2  C    2.471790   0.000000
     3  C    4.391779   6.461900   0.000000
     4  C    6.127488   8.008357   2.983062   0.000000
     5  C    4.617372   6.863904   3.483549   3.225380   0.000000
     6  C    2.513305   2.469141   5.811505   6.484530   5.273447
     7  C    1.469237   1.512395   5.164281   6.520214   5.442245
     8  C    3.031996   3.938314   5.071909   5.159403   4.000401
     9  C    3.493930   4.549942   4.171741   4.022926   3.860605
    10  N    4.453887   4.979671   6.201022   5.647899   4.718369
    11  O    4.382883   4.949618   4.856855   4.420282   4.914671
    12  O    3.529806   5.176809   2.952926   2.920787   2.880789
    13  Si   4.338084   6.390803   2.004350   1.859331   2.042081
    14  H    1.087682   2.851926   5.019146   6.520122   4.498086
    15  H    1.130997   3.446159   3.368696   5.022377   3.632904
    16  H    1.097829   2.687236   4.522649   6.694800   5.265269
    17  H    2.808576   1.104557   7.110109   8.581101   7.058171
    18  H    2.788952   1.041394   6.508490   8.366130   7.350653
    19  H    3.317917   1.121269   6.918851   8.216715   7.404611
    20  H    4.621711   6.370308   1.138128   3.412383   4.478981
    21  H    3.809422   5.994136   1.120067   3.971600   3.622276
    22  H    5.464623   7.585179   1.137764   2.966711   3.843758
    23  H    6.778038   8.643086   2.990070   1.206026   4.174166
    24  H    6.767678   8.742614   3.758472   1.085110   3.124849
    25  H    6.506949   8.137152   3.765757   1.090519   3.952241
    26  H    5.510813   7.834511   3.652024   3.224081   1.074299
    27  H    3.878464   6.178588   3.737286   4.169139   1.113499
    28  H    5.134422   7.181130   4.393215   3.479952   1.101670
    29  H    2.892328   2.632721   6.585169   7.272303   5.668333
    30  H    3.439459   2.735264   6.468976   6.935428   6.109931
    31  H    2.015424   2.103699   4.734908   6.063034   5.507835
    32  H    2.825103   4.218070   4.934789   5.175213   3.335308
    33  H    4.783440   4.934874   7.120182   6.709334   5.512259
    34  H    4.927519   5.210876   6.410884   5.698460   5.297189
                    6          7          8          9         10
     6  C    0.000000
     7  C    1.544472   0.000000
     8  C    1.610756   2.637664   0.000000
     9  C    2.649209   3.125493   1.526520   0.000000
    10  N    2.521194   3.877674   1.456977   2.262255   0.000000
    11  O    3.185170   3.698914   2.383894   1.201377   2.606355
    12  O    3.578522   3.673103   2.413895   1.332979   3.309622
    13  Si   4.999185   4.905896   3.810942   2.937005   4.663326
    14  H    2.547081   2.059170   3.012144   3.868145   4.323030
    15  H    2.865173   2.139679   2.761337   2.880133   4.210229
    16  H    3.495026   2.187046   4.118469   4.437253   5.544065
    17  H    2.641663   2.147610   4.150672   5.071483   5.086724
    18  H    3.418196   2.168029   4.777131   5.194835   5.906534
    19  H    2.573490   2.007926   4.070464   4.546842   4.889713
    20  H    5.938273   5.164527   5.361553   4.284904   6.479600
    21  H    5.638922   4.814236   5.116444   4.497521   6.393097
    22  H    6.906294   6.294779   6.068906   5.136473   7.115833
    23  H    7.355976   7.203757   6.150813   4.913010   6.722070
    24  H    7.066179   7.235754   5.627938   4.673286   5.975140
    25  H    6.485052   6.663924   5.135999   3.872022   5.404457
    26  H    6.334418   6.423334   5.063611   4.811379   5.733829
    27  H    4.766615   4.855794   3.727596   3.930783   4.629202
    28  H    5.286116   5.756754   3.850807   3.837362   4.235569
    29  H    1.057751   2.167677   2.230579   3.552791   2.870026
    30  H    1.096013   2.171691   2.189792   2.924989   2.596960
    31  H    2.060126   1.012323   2.811761   2.780225   4.008164
    32  H    2.138313   2.935570   1.095959   2.264812   2.120793
    33  H    2.574863   4.098799   2.108770   3.224876   1.082512
    34  H    2.881193   4.155992   2.017010   2.275747   0.951466
                   11         12         13         14         15
    11  O    0.000000
    12  O    2.233166   0.000000
    13  Si   3.746514   1.618295   0.000000
    14  H    4.860372   3.952457   4.694039   0.000000
    15  H    3.887887   2.575579   3.217303   1.733438   0.000000
    16  H    5.262426   4.323443   4.915140   1.800329   1.823673
    17  H    5.579193   5.718144   6.893955   2.762480   3.865191
    18  H    5.570455   5.664769   6.750343   3.346178   3.762375
    19  H    4.673904   5.378076   6.750395   3.763462   4.120635
    20  H    4.732335   3.250632   2.725927   5.429826   3.719810
    21  H    5.319190   3.387193   2.645300   4.405535   2.902506
    22  H    5.777855   3.855922   2.578247   6.027814   4.437214
    23  H    5.195586   3.790641   2.673944   7.287365   5.678005
    24  H    5.139676   3.618035   2.466630   7.016752   5.657752
    25  H    3.989671   3.054098   2.544767   6.931345   5.460954
    26  H    5.799588   3.719414   2.503799   5.414921   4.501942
    27  H    5.095053   3.122431   2.647795   3.599535   3.035181
    28  H    4.814616   3.121113   2.639102   4.906799   4.230263
    29  H    4.141270   4.415340   5.727248   2.545131   3.430913
    30  H    3.034868   4.085762   5.635522   3.601694   3.780549
    31  H    3.146825   3.311736   4.597422   2.857385   2.293486
    32  H    3.328109   2.627675   3.654607   2.500603   2.495899
    33  H    3.508588   4.299870   5.647504   4.495604   4.768513
    34  H    2.144315   3.473929   4.921941   4.966225   4.670757
                   16         17         18         19         20
    16  H    0.000000
    17  H    3.069768   0.000000
    18  H    2.589884   1.816812   0.000000
    19  H    3.644725   1.870948   1.692261   0.000000
    20  H    4.673968   7.158886   6.318187   6.701586   0.000000
    21  H    3.749864   6.572038   5.959203   6.602221   1.809963
    22  H    5.540130   8.215453   7.603650   8.054358   1.781472
    23  H    7.199977   9.303501   8.880386   8.844179   3.202168
    24  H    7.375985   9.221069   9.159283   8.994038   4.358977
    25  H    7.158889   8.747422   8.550222   8.199645   3.957546
    26  H    6.042292   8.043104   8.257635   8.402998   4.723481
    27  H    4.495443   6.264130   6.658797   6.836528   4.718804
    28  H    5.926480   7.306561   7.791946   7.629189   5.298338
    29  H    3.810592   2.345356   3.647160   2.878901   6.811885
    30  H    4.329335   3.021008   3.675332   2.361846   6.449721
    31  H    2.580893   2.992111   2.496089   2.223311   4.549426
    32  H    3.893941   4.250996   5.017894   4.606365   5.433719
    33  H    5.859163   4.846297   5.937518   4.811337   7.404610
    34  H    5.982937   5.455195   6.102635   4.928570   6.544952
                   21         22         23         24         25
    21  H    0.000000
    22  H    1.842647   0.000000
    23  H    4.073312   2.639369   0.000000
    24  H    4.643583   3.581078   1.844132   0.000000
    25  H    4.780568   3.879528   1.742888   1.679980   0.000000
    26  H    3.848179   3.686709   4.005269   2.882475   4.100544
    27  H    3.549234   4.264483   5.065481   4.200067   4.873298
    28  H    4.634502   4.766481   4.580223   3.198537   3.975373
    29  H    6.307606   7.658710   8.198212   7.759735   7.320810
    30  H    6.409206   7.568059   7.779831   7.563272   6.773239
    31  H    4.537251   5.870978   6.649058   6.880781   6.130606
    32  H    4.837494   5.873792   6.203452   5.512089   5.350843
    33  H    7.205881   8.066671   7.790860   7.003124   6.483231
    34  H    6.713939   7.323477   6.708859   6.104541   5.289410
                   26         27         28         29         30
    26  H    0.000000
    27  H    1.900277   0.000000
    28  H    1.724675   1.786319   0.000000
    29  H    6.730177   5.027135   5.615009   0.000000
    30  H    7.168516   5.719770   6.037830   1.693901   0.000000
    31  H    6.448176   5.094751   5.857356   2.941090   2.366933
    32  H    4.407104   2.863586   3.224531   2.398914   3.008433
    33  H    6.541200   5.275841   5.001301   2.551630   2.531336
    34  H    6.277785   5.327161   4.831677   3.397785   2.620152
                   31         32         33         34
    31  H    0.000000
    32  H    3.330013   0.000000
    33  H    4.413151   2.595651   0.000000
    34  H    4.089666   2.910079   1.605989   0.000000
 Stoichiometry    C9H21NO2Si(1+,2)
 Framework group  C1[X(C9H21NO2Si)]
 Deg. of freedom    96
 Full point group                 C1      NOp   1
 Largest Abelian subgroup         C1      NOp   1
 Largest concise Abelian subgroup C1      NOp   1
                         Standard orientation:                         
 ---------------------------------------------------------------------
 Center     Atomic      Atomic             Coordinates (Angstroms)
 Number     Number       Type             X           Y           Z
 ---------------------------------------------------------------------
      1          6           0       -1.733149   -1.858323    0.589942
      2          6           0       -3.970499   -1.511928   -0.402036
      3          6           0        2.452594   -2.149880   -0.707085
      4          6           0        3.769585    0.526416   -0.666662
      5          6           0        2.261223   -0.112200    2.111842
      6          6           0       -2.646647    0.461092    0.269727
      7          6           0       -2.559158   -0.987860   -0.257796
      8          6           0       -1.207657    1.127547    0.552002
      9          6           0       -0.218263    1.053267   -0.608104
     10          7           0       -1.327278    2.576707    0.643701
     11          8           0       -0.389741    1.681735   -1.617524
     12          8           0        0.870783    0.321249   -0.373665
     13         14           0        2.288465   -0.313824    0.079922
     14          1           0       -1.959428   -1.587226    1.618707
     15          1           0       -0.642741   -1.574705    0.491327
     16          1           0       -1.852134   -2.938469    0.433879
     17          1           0       -4.503205   -1.395824    0.558583
     18          1           0       -4.047453   -2.448888   -0.850017
     19          1           0       -4.318097   -0.817929   -1.211223
     20          1           0        2.195280   -2.277588   -1.808364
     21          1           0        1.852117   -2.912856   -0.148654
     22          1           0        3.553967   -2.432449   -0.666598
     23          1           0        4.493062   -0.082211   -1.415431
     24          1           0        4.399813    0.961313    0.102195
     25          1           0        3.576678    1.395540   -1.296458
     26          1           0        3.264187   -0.383715    2.384720
     27          1           0        1.389938   -0.651514    2.547600
     28          1           0        2.169064    0.948620    2.394407
     29          1           0       -3.281581    0.527941    1.113070
     30          1           0       -3.140061    1.093134   -0.477474
     31          1           0       -2.097836   -0.920623   -1.156384
     32          1           0       -0.921497    0.685341    1.513090
     33          1           0       -2.264363    2.868011    1.100698
     34          1           0       -1.349782    2.988038   -0.213964
 ---------------------------------------------------------------------
 Rotational constants (GHZ):           0.9227465           0.4038099           0.3453957
 Standard basis: SVP (5D, 7F)
 There are   304 symmetry adapted cartesian basis functions of A   symmetry.
 There are   291 symmetry adapted basis functions of A   symmetry.
   291 basis functions,   484 primitive gaussians,   304 cartesian basis functions
    56 alpha electrons       55 beta electrons
       nuclear repulsion energy       985.3718496226 Hartrees.
 NAtoms=   34 NActive=   34 NUniq=   34 SFac= 1.00D+00 NAtFMM=   60 NAOKFM=F Big=F
 Integral buffers will be    131072 words long.
 Raffenetti 2 integral format.
 Two-electron integral symmetry is turned on.
 Nuclear repulsion after empirical dispersion term =      985.3409955292 Hartrees.
 One-electron integrals computed using PRISM.
 NBasis=   291 RedAO= T EigKep=  1.08D-03  NBF=   291
 NBsUse=   291 1.00D-06 EigRej= -1.00D+00 NBFU=   291
 ExpMin= 7.80D-02 ExpMax= 6.90D+03 ExpMxC= 1.04D+03 IAcc=3 IRadAn=         5 AccDes= 0.00D+00
 Harris functional with IExCor= 1009 and IRadAn=       5 diagonalized for initial guess.
 HarFok:  IExCor= 1009 AccDes= 0.00D+00 IRadAn=         5 IDoV= 1 UseB2=F ITyADJ=14
 ICtDFT=  3500011 ScaDFX=  1.000000  1.000000  1.000000  1.000000
 FoFCou: FMM=F IPFlag=           0 FMFlag=      100000 FMFlg1=           0
         NFxFlg=           0 DoJE=T BraDBF=F KetDBF=T FulRan=T
         wScrn=  0.000000 ICntrl=       500 IOpCl=  0 I1Cent=   200000004 NGrid=           0
         NMat0=    1 NMatS0=      1 NMatT0=    0 NMatD0=    1 NMtDS0=    0 NMtDT0=    0
 Petite list used in FoFCou.
 Initial guess <Sx>= 0.0000 <Sy>= 0.0000 <Sz>= 0.5000 <S**2>= 0.7500 S= 0.5000
 Requested convergence on RMS density matrix=1.00D-08 within  32 cycles.
 Requested convergence on MAX density matrix=1.00D-06.
 Requested convergence on             energy=1.00D-06.
 No special actions if energy rises.
 Integral accuracy reduced to 1.0D-05 until final iterations.
 Failed to achieve initial convergence to 1.0D-08 in 10 cycles.
 Switch to full accuracy anyway.
 SCF Done:  E(UPBE1PBE) =  -848.738275648     A.U. after   24 cycles
            NFock= 24  Conv=0.82D-08     -V/T= 2.0078
 <Sx>= 0.0000 <Sy>= 0.0000 <Sz>= 0.5000 <S**2>= 0.7542 S= 0.5021
 <L.S>=  0.00000000000    
 Annihilation of the first spin contaminant:
 S**2 before annihilation     0.7542,   after     0.7500
 QCSCF skips out because SCF is already converged.
 DoSCS=F DFT=T ScalE2(SS,OS)=  1.000000  1.000000
 Range of M.O.s used for correlation:     1   291
 NBasis=   291 NAE=    56 NBE=    55 NFC=     0 NFV=     0
 NROrb=    291 NOA=    56 NOB=    55 NVA=   235 NVB=   236

 **** Warning!!: The smallest beta delta epsilon is  0.32049657D-01

 Symmetrizing basis deriv contribution to polar:
 IMax=3 JMax=2 DiffMx= 0.00D+00
 G2DrvN: will do    35 centers at a time, making    1 passes.
 Calling FoFCou, ICntrl=  3107 FMM=F I1Cent=   0 AccDes= 0.00D+00.
 End of G2Drv F.D. properties file   721 does not exist.
 End of G2Drv F.D. properties file   722 does not exist.
 End of G2Drv F.D. properties file   788 does not exist.
          IDoAtm=1111111111111111111111111111111111
          Differentiating once with respect to electric field.
                with respect to dipole field.
          Differentiating once with respect to nuclear coordinates.
 CalDSu exits because no D1Ps are significant.
          There are   105 degrees of freedom in the 1st order CPHF.  IDoFFX=6 NUNeed=     3.
    102 vectors produced by pass  0 Test12= 2.61D-14 1.00D-09 XBig12= 6.28D+03 7.73D+01.
 AX will form   102 AO Fock derivatives at one time.
    102 vectors produced by pass  1 Test12= 2.61D-14 1.00D-09 XBig12= 5.08D+02 2.49D+00.
    102 vectors produced by pass  2 Test12= 2.61D-14 1.00D-09 XBig12= 1.97D+01 9.28D-01.
    102 vectors produced by pass  3 Test12= 2.61D-14 1.00D-09 XBig12= 1.82D-01 4.10D-02.
    102 vectors produced by pass  4 Test12= 2.61D-14 1.00D-09 XBig12= 1.13D-03 2.26D-03.
    102 vectors produced by pass  5 Test12= 2.61D-14 1.00D-09 XBig12= 4.59D-06 2.14D-04.
     53 vectors produced by pass  6 Test12= 2.61D-14 1.00D-09 XBig12= 1.50D-08 8.11D-06.
      8 vectors produced by pass  7 Test12= 2.61D-14 1.00D-09 XBig12= 5.66D-11 4.04D-07.
      3 vectors produced by pass  8 Test12= 2.61D-14 1.00D-09 XBig12= 2.08D-13 2.95D-08.
      1 vectors produced by pass  9 Test12= 2.61D-14 1.00D-09 XBig12= 8.44D-16 1.62D-09.
 InvSVY:  IOpt=1 It=  1 EMax= 3.20D-14
 Solved reduced A of dimension   677 with   105 vectors.
 Isotropic polarizability for W=    0.000000      276.30 Bohr**3.
 End of Minotr F.D. properties file   721 does not exist.
 End of Minotr F.D. properties file   722 does not exist.
 End of Minotr F.D. properties file   788 does not exist.

 **********************************************************************

            Population analysis using the SCF density.

 **********************************************************************

 Orbital symmetries:
 Alpha Orbitals:
       Occupied  (A) (A) (A) (A) (A) (A) (A) (A) (A) (A) (A) (A)
                 (A) (A) (A) (A) (A) (A) (A) (A) (A) (A) (A) (A)
                 (A) (A) (A) (A) (A) (A) (A) (A) (A) (A) (A) (A)
                 (A) (A) (A) (A) (A) (A) (A) (A) (A) (A) (A) (A)
                 (A) (A) (A) (A) (A) (A) (A) (A)
       Virtual   (A) (A) (A) (A) (A) (A) (A) (A) (A) (A) (A) (A)
                 (A) (A) (A) (A) (A) (A) (A) (A) (A) (A) (A) (A)
                 (A) (A) (A) (A) (A) (A) (A) (A) (A) (A) (A) (A)
                 (A) (A) (A) (A) (A) (A) (A) (A) (A) (A) (A) (A)
                 (A) (A) (A) (A) (A) (A) (A) (A) (A) (A) (A) (A)
                 (A) (A) (A) (A) (A) (A) (A) (A) (A) (A) (A) (A)
                 (A) (A) (A) (A) (A) (A) (A) (A) (A) (A) (A) (A)
                 (A) (A) (A) (A) (A) (A) (A) (A) (A) (A) (A) (A)
                 (A) (A) (A) (A) (A) (A) (A) (A) (A) (A) (A) (A)
                 (A) (A) (A) (A) (A) (A) (A) (A) (A) (A) (A) (A)
                 (A) (A) (A) (A) (A) (A) (A) (A) (A) (A) (A) (A)
                 (A) (A) (A) (A) (A) (A) (A) (A) (A) (A) (A) (A)
                 (A) (A) (A) (A) (A) (A) (A) (A) (A) (A) (A) (A)
                 (A) (A) (A) (A) (A) (A) (A) (A) (A) (A) (A) (A)
                 (A) (A) (A) (A) (A) (A) (A) (A) (A) (A) (A) (A)
                 (A) (A) (A) (A) (A) (A) (A) (A) (A) (A) (A) (A)
                 (A) (A) (A) (A) (A) (A) (A) (A) (A) (A) (A) (A)
                 (A) (A) (A) (A) (A) (A) (A) (A) (A) (A) (A) (A)
                 (A) (A) (A) (A) (A) (A) (A) (A) (A) (A) (A) (A)
                 (A) (A) (A) (A) (A) (A) (A)
 Beta  Orbitals:
       Occupied  (A) (A) (A) (A) (A) (A) (A) (A) (A) (A) (A) (A)
                 (A) (A) (A) (A) (A) (A) (A) (A) (A) (A) (A) (A)
                 (A) (A) (A) (A) (A) (A) (A) (A) (A) (A) (A) (A)
                 (A) (A) (A) (A) (A) (A) (A) (A) (A) (A) (A) (A)
                 (A) (A) (A) (A) (A) (A) (A)
       Virtual   (A) (A) (A) (A) (A) (A) (A) (A) (A) (A) (A) (A)
                 (A) (A) (A) (A) (A) (A) (A) (A) (A) (A) (A) (A)
                 (A) (A) (A) (A) (A) (A) (A) (A) (A) (A) (A) (A)
                 (A) (A) (A) (A) (A) (A) (A) (A) (A) (A) (A) (A)
                 (A) (A) (A) (A) (A) (A) (A) (A) (A) (A) (A) (A)
                 (A) (A) (A) (A) (A) (A) (A) (A) (A) (A) (A) (A)
                 (A) (A) (A) (A) (A) (A) (A) (A) (A) (A) (A) (A)
                 (A) (A) (A) (A) (A) (A) (A) (A) (A) (A) (A) (A)
                 (A) (A) (A) (A) (A) (A) (A) (A) (A) (A) (A) (A)
                 (A) (A) (A) (A) (A) (A) (A) (A) (A) (A) (A) (A)
                 (A) (A) (A) (A) (A) (A) (A) (A) (A) (A) (A) (A)
                 (A) (A) (A) (A) (A) (A) (A) (A) (A) (A) (A) (A)
                 (A) (A) (A) (A) (A) (A) (A) (A) (A) (A) (A) (A)
                 (A) (A) (A) (A) (A) (A) (A) (A) (A) (A) (A) (A)
                 (A) (A) (A) (A) (A) (A) (A) (A) (A) (A) (A) (A)
                 (A) (A) (A) (A) (A) (A) (A) (A) (A) (A) (A) (A)
                 (A) (A) (A) (A) (A) (A) (A) (A) (A) (A) (A) (A)
                 (A) (A) (A) (A) (A) (A) (A) (A) (A) (A) (A) (A)
                 (A) (A) (A) (A) (A) (A) (A) (A) (A) (A) (A) (A)
                 (A) (A) (A) (A) (A) (A) (A) (A)
 The electronic state is 2-A.
 Alpha  occ. eigenvalues --  -66.41443 -19.39537 -19.36951 -14.66874 -10.54418
 Alpha  occ. eigenvalues --  -10.48939 -10.42880 -10.38180 -10.35833 -10.35827
 Alpha  occ. eigenvalues --  -10.35560 -10.34997 -10.33258  -5.49616  -3.83728
 Alpha  occ. eigenvalues --   -3.83234  -3.83159  -1.27908  -1.19870  -1.16540
 Alpha  occ. eigenvalues --   -1.00674  -0.93636  -0.87194  -0.84969  -0.83905
 Alpha  occ. eigenvalues --   -0.81503  -0.80302  -0.79560  -0.77642  -0.73178
 Alpha  occ. eigenvalues --   -0.70086  -0.68816  -0.65706  -0.63706  -0.62356
 Alpha  occ. eigenvalues --   -0.61705  -0.59463  -0.57461  -0.57196  -0.56340
 Alpha  occ. eigenvalues --   -0.55208  -0.54225  -0.53691  -0.53107  -0.52624
 Alpha  occ. eigenvalues --   -0.51875  -0.51216  -0.50725  -0.49997  -0.49482
 Alpha  occ. eigenvalues --   -0.48371  -0.48160  -0.46858  -0.46646  -0.42908
 Alpha  occ. eigenvalues --   -0.42493
 Alpha virt. eigenvalues --   -0.17275  -0.11058  -0.08576  -0.07094  -0.06307
 Alpha virt. eigenvalues --   -0.06130  -0.03704  -0.03456  -0.02386  -0.01883
 Alpha virt. eigenvalues --   -0.00913  -0.00484  -0.00218   0.00472   0.01225
 Alpha virt. eigenvalues --    0.01815   0.02018   0.02076   0.03198   0.03681
 Alpha virt. eigenvalues --    0.04020   0.05048   0.05324   0.05745   0.06087
 Alpha virt. eigenvalues --    0.07327   0.07836   0.09481   0.10506   0.11616
 Alpha virt. eigenvalues --    0.12133   0.13118   0.15687   0.19462   0.19489
 Alpha virt. eigenvalues --    0.25136   0.25853   0.26494   0.27826   0.28463
 Alpha virt. eigenvalues --    0.30361   0.31616   0.32286   0.33290   0.34129
 Alpha virt. eigenvalues --    0.35483   0.36690   0.39096   0.39335   0.40363
 Alpha virt. eigenvalues --    0.42134   0.42804   0.44072   0.45692   0.46787
 Alpha virt. eigenvalues --    0.47302   0.47990   0.48200   0.48840   0.49437
 Alpha virt. eigenvalues --    0.50337   0.50408   0.51620   0.52371   0.53418
 Alpha virt. eigenvalues --    0.53831   0.54154   0.54647   0.55519   0.55724
 Alpha virt. eigenvalues --    0.56242   0.57119   0.57634   0.57914   0.58208
 Alpha virt. eigenvalues --    0.58897   0.59447   0.60016   0.60303   0.60445
 Alpha virt. eigenvalues --    0.60869   0.61576   0.62484   0.62570   0.62791
 Alpha virt. eigenvalues --    0.63177   0.64533   0.65401   0.65775   0.68869
 Alpha virt. eigenvalues --    0.69564   0.73538   0.75211   0.76344   0.79251
 Alpha virt. eigenvalues --    0.80613   0.81297   0.83994   0.86228   0.87016
 Alpha virt. eigenvalues --    0.88740   0.91755   0.94235   0.95865   0.98763
 Alpha virt. eigenvalues --    0.99515   1.02053   1.04774   1.06918   1.08263
 Alpha virt. eigenvalues --    1.09762   1.11230   1.12549   1.13979   1.15297
 Alpha virt. eigenvalues --    1.19554   1.20595   1.22315   1.25289   1.25458
 Alpha virt. eigenvalues --    1.29005   1.32454   1.35093   1.36257   1.39125
 Alpha virt. eigenvalues --    1.39932   1.42342   1.43718   1.45128   1.46092
 Alpha virt. eigenvalues --    1.47025   1.48111   1.51699   1.52971   1.55429
 Alpha virt. eigenvalues --    1.58234   1.59224   1.60290   1.60471   1.61901
 Alpha virt. eigenvalues --    1.63138   1.63844   1.64341   1.65248   1.65355
 Alpha virt. eigenvalues --    1.65917   1.67096   1.67679   1.69825   1.70585
 Alpha virt. eigenvalues --    1.71232   1.71847   1.72673   1.73134   1.73381
 Alpha virt. eigenvalues --    1.73642   1.75452   1.77120   1.78243   1.79083
 Alpha virt. eigenvalues --    1.79244   1.80806   1.81615   1.82470   1.84057
 Alpha virt. eigenvalues --    1.84588   1.85806   1.86454   1.87948   1.88827
 Alpha virt. eigenvalues --    1.90269   1.92312   1.92842   1.97228   2.00417
 Alpha virt. eigenvalues --    2.02969   2.04323   2.05501   2.08484   2.12339
 Alpha virt. eigenvalues --    2.13430   2.17287   2.19108   2.20031   2.22246
 Alpha virt. eigenvalues --    2.23442   2.24657   2.25872   2.28121   2.28337
 Alpha virt. eigenvalues --    2.29452   2.30155   2.31028   2.32534   2.36023
 Alpha virt. eigenvalues --    2.37526   2.43587   2.45062   2.45793   2.46491
 Alpha virt. eigenvalues --    2.47721   2.48406   2.49663   2.50793   2.53694
 Alpha virt. eigenvalues --    2.54523   2.57577   2.58198   2.60673   2.61178
 Alpha virt. eigenvalues --    2.62718   2.69416   2.72700   2.75995   2.77030
 Alpha virt. eigenvalues --    2.78816   2.80007   2.80331   2.80682   2.81438
 Alpha virt. eigenvalues --    2.82186   2.86108   2.87445   2.88962   2.89987
 Alpha virt. eigenvalues --    2.92139   2.97082   2.98877   3.02191   3.07229
 Alpha virt. eigenvalues --    3.11302   3.20073   3.22629   3.49307   3.52179
  Beta  occ. eigenvalues --  -66.41439 -19.39422 -19.36936 -14.65487 -10.54427
  Beta  occ. eigenvalues --  -10.48840 -10.42604 -10.38105 -10.35829 -10.35733
  Beta  occ. eigenvalues --  -10.35495 -10.34906 -10.33259  -5.49615  -3.83731
  Beta  occ. eigenvalues --   -3.83219  -3.83143  -1.27744  -1.19573  -1.14264
  Beta  occ. eigenvalues --   -1.00029  -0.92722  -0.86795  -0.84721  -0.83568
  Beta  occ. eigenvalues --   -0.81245  -0.80123  -0.79310  -0.77034  -0.72827
  Beta  occ. eigenvalues --   -0.69285  -0.67843  -0.64739  -0.63447  -0.62063
  Beta  occ. eigenvalues --   -0.59919  -0.59157  -0.57262  -0.56789  -0.55073
  Beta  occ. eigenvalues --   -0.54217  -0.53561  -0.53181  -0.52964  -0.51985
  Beta  occ. eigenvalues --   -0.51077  -0.50727  -0.50567  -0.49819  -0.48307
  Beta  occ. eigenvalues --   -0.48149  -0.46815  -0.46430  -0.42448  -0.41488
  Beta virt. eigenvalues --   -0.38283  -0.17042  -0.10557  -0.08389  -0.07022
  Beta virt. eigenvalues --   -0.06135  -0.05985  -0.03622  -0.03054  -0.02235
  Beta virt. eigenvalues --   -0.01774  -0.00698  -0.00312  -0.00077   0.00588
  Beta virt. eigenvalues --    0.01454   0.02043   0.02152   0.02245   0.03421
  Beta virt. eigenvalues --    0.03769   0.04157   0.05138   0.05472   0.05880
  Beta virt. eigenvalues --    0.06333   0.07596   0.08081   0.09580   0.10710
  Beta virt. eigenvalues --    0.11791   0.12335   0.13264   0.15759   0.19550
  Beta virt. eigenvalues --    0.19687   0.25280   0.25951   0.26685   0.28096
  Beta virt. eigenvalues --    0.28571   0.30485   0.31932   0.32749   0.33587
  Beta virt. eigenvalues --    0.34317   0.35818   0.37036   0.39234   0.39674
  Beta virt. eigenvalues --    0.41136   0.42277   0.42943   0.44692   0.46022
  Beta virt. eigenvalues --    0.47096   0.47534   0.48243   0.48609   0.49337
  Beta virt. eigenvalues --    0.49752   0.50539   0.50762   0.51745   0.52590
  Beta virt. eigenvalues --    0.53501   0.53982   0.54633   0.54800   0.55716
  Beta virt. eigenvalues --    0.55946   0.56768   0.57246   0.57991   0.58075
  Beta virt. eigenvalues --    0.58302   0.59059   0.59619   0.60191   0.60419
  Beta virt. eigenvalues --    0.60600   0.61062   0.61778   0.62605   0.62763
  Beta virt. eigenvalues --    0.63083   0.63383   0.65088   0.65657   0.66612
  Beta virt. eigenvalues --    0.69104   0.69811   0.73738   0.75792   0.76455
  Beta virt. eigenvalues --    0.79530   0.80684   0.81511   0.84318   0.86475
  Beta virt. eigenvalues --    0.87072   0.88904   0.91926   0.94791   0.96332
  Beta virt. eigenvalues --    0.99160   0.99725   1.02210   1.05013   1.07026
  Beta virt. eigenvalues --    1.08631   1.10040   1.11557   1.12822   1.14126
  Beta virt. eigenvalues --    1.15427   1.19826   1.20874   1.22504   1.25391
  Beta virt. eigenvalues --    1.25653   1.29272   1.32608   1.35243   1.36449
  Beta virt. eigenvalues --    1.39140   1.39971   1.42428   1.43802   1.45169
  Beta virt. eigenvalues --    1.46416   1.47190   1.48372   1.52079   1.53317
  Beta virt. eigenvalues --    1.55822   1.58462   1.59493   1.60421   1.60704
  Beta virt. eigenvalues --    1.62142   1.63346   1.64018   1.64544   1.65402
  Beta virt. eigenvalues --    1.65790   1.66093   1.67419   1.67778   1.69985
  Beta virt. eigenvalues --    1.70674   1.71305   1.72096   1.72823   1.73252
  Beta virt. eigenvalues --    1.73558   1.74068   1.75607   1.77319   1.78399
  Beta virt. eigenvalues --    1.79356   1.79591   1.80953   1.81721   1.82717
  Beta virt. eigenvalues --    1.84439   1.84643   1.85982   1.86676   1.88131
  Beta virt. eigenvalues --    1.89251   1.90439   1.92525   1.93136   1.97430
  Beta virt. eigenvalues --    2.00782   2.03549   2.04621   2.05774   2.08873
  Beta virt. eigenvalues --    2.12930   2.13724   2.17499   2.19623   2.20524
  Beta virt. eigenvalues --    2.23027   2.23488   2.24735   2.26018   2.28484
  Beta virt. eigenvalues --    2.28759   2.29610   2.30320   2.31202   2.32580
  Beta virt. eigenvalues --    2.36381   2.37694   2.43880   2.45419   2.45853
  Beta virt. eigenvalues --    2.47026   2.47954   2.48733   2.50243   2.50954
  Beta virt. eigenvalues --    2.54130   2.55067   2.58094   2.59270   2.61693
  Beta virt. eigenvalues --    2.62274   2.62857   2.70364   2.72886   2.76112
  Beta virt. eigenvalues --    2.77488   2.78996   2.80187   2.80511   2.80977
  Beta virt. eigenvalues --    2.81818   2.82322   2.86307   2.87606   2.89058
  Beta virt. eigenvalues --    2.90003   2.93081   2.97531   2.99262   3.02577
  Beta virt. eigenvalues --    3.07306   3.11388   3.20407   3.23855   3.49394
  Beta virt. eigenvalues --    3.52235
          Condensed to atoms (all electrons):
               1          2          3          4          5          6
     1  C    4.684766  -0.065760  -0.000179  -0.000015  -0.000322  -0.067633
     2  C   -0.065760   4.531484  -0.000001  -0.000000   0.000000  -0.048058
     3  C   -0.000179  -0.000001   4.976097  -0.043147  -0.020132   0.000021
     4  C   -0.000015  -0.000000  -0.043147   4.950395  -0.030798  -0.000001
     5  C   -0.000322   0.000000  -0.020132  -0.030798   4.913565   0.000015
     6  C   -0.067633  -0.048058   0.000021  -0.000001   0.000015   4.950978
     7  C    0.359723   0.393058  -0.000025   0.000002   0.000017   0.309362
     8  C    0.003625   0.010446  -0.000156  -0.000279  -0.000547   0.223047
     9  C   -0.007094  -0.000324   0.000308   0.000214  -0.000402  -0.027715
    10  N    0.000057  -0.000122  -0.000002   0.000004   0.000125  -0.035488
    11  O    0.000298  -0.000016   0.000007   0.000097  -0.000028  -0.000917
    12  O   -0.006232  -0.000010  -0.014367  -0.014543  -0.024643  -0.000601
    13  Si   0.002926   0.000016   0.398342   0.402611   0.412055  -0.000063
    14  H    0.388550  -0.006751   0.000016  -0.000000   0.000030  -0.009045
    15  H    0.366985   0.008116  -0.002125   0.000290  -0.001264  -0.019237
    16  H    0.397251  -0.006041   0.000051   0.000000   0.000008   0.009033
    17  H   -0.006600   0.406955   0.000000   0.000000   0.000000  -0.013838
    18  H   -0.008431   0.402695   0.000000   0.000000  -0.000000   0.007696
    19  H    0.012899   0.390637   0.000000  -0.000000   0.000000  -0.005340
    20  H    0.000013   0.000001   0.375048  -0.000404   0.000904   0.000001
    21  H   -0.000009   0.000001   0.373969   0.002934  -0.001206   0.000002
    22  H    0.000002   0.000000   0.373013  -0.001706   0.000303  -0.000000
    23  H    0.000000   0.000000  -0.004188   0.374828   0.001201   0.000000
    24  H    0.000000  -0.000000   0.002380   0.372294  -0.002879  -0.000000
    25  H    0.000000   0.000000   0.002097   0.369607   0.001127  -0.000000
    26  H   -0.000003  -0.000000  -0.000224   0.000102   0.379611  -0.000000
    27  H    0.000346  -0.000000  -0.000832   0.001920   0.376324  -0.000033
    28  H    0.000011  -0.000000   0.001255  -0.001129   0.373245   0.000021
    29  H   -0.009547  -0.003204  -0.000000  -0.000000  -0.000000   0.387809
    30  H    0.009715  -0.001445   0.000001  -0.000000  -0.000002   0.367973
    31  H   -0.030658  -0.018867   0.000081  -0.000003  -0.000004  -0.016612
    32  H    0.014014   0.000003   0.000049   0.000044   0.000934  -0.006679
    33  H   -0.000055  -0.000024  -0.000000  -0.000000   0.000001  -0.003895
    34  H    0.000084   0.000005   0.000000   0.000005   0.000013  -0.000896
               7          8          9         10         11         12
     1  C    0.359723   0.003625  -0.007094   0.000057   0.000298  -0.006232
     2  C    0.393058   0.010446  -0.000324  -0.000122  -0.000016  -0.000010
     3  C   -0.000025  -0.000156   0.000308  -0.000002   0.000007  -0.014367
     4  C    0.000002  -0.000279   0.000214   0.000004   0.000097  -0.014543
     5  C    0.000017  -0.000547  -0.000402   0.000125  -0.000028  -0.024643
     6  C    0.309362   0.223047  -0.027715  -0.035488  -0.000917  -0.000601
     7  C    4.971588  -0.021724  -0.002798   0.004749  -0.002434   0.002331
     8  C   -0.021724   5.319821   0.180110   0.317739  -0.085599  -0.078400
     9  C   -0.002798   0.180110   4.613378  -0.038943   0.678974   0.301064
    10  N    0.004749   0.317739  -0.038943   6.067843  -0.015465  -0.000297
    11  O   -0.002434  -0.085599   0.678974  -0.015465   7.647054  -0.071042
    12  O    0.002331  -0.078400   0.301064  -0.000297  -0.071042   7.979576
    13  Si  -0.000009   0.003572  -0.019935   0.000233  -0.000161   0.312433
    14  H   -0.032085  -0.008919   0.001113   0.000064  -0.000019   0.000035
    15  H   -0.005030   0.015613  -0.005601   0.000330  -0.000135   0.015030
    16  H   -0.017545  -0.000452   0.000144  -0.000001   0.000001   0.000061
    17  H   -0.029229   0.000255   0.000056  -0.000003  -0.000001  -0.000000
    18  H   -0.008032  -0.000471   0.000013   0.000002   0.000001   0.000000
    19  H   -0.042074   0.000883  -0.000143  -0.000042  -0.000018  -0.000000
    20  H   -0.000010  -0.000001  -0.000012   0.000000  -0.000009   0.000197
    21  H   -0.000002   0.000003  -0.000048   0.000000   0.000000  -0.000088
    22  H    0.000001   0.000003  -0.000001   0.000000   0.000000   0.000719
    23  H   -0.000000   0.000002  -0.000006   0.000000   0.000001   0.000466
    24  H   -0.000000   0.000013  -0.000013  -0.000001   0.000000   0.000763
    25  H    0.000000   0.000048   0.000457  -0.000002   0.000091  -0.000493
    26  H   -0.000000   0.000058  -0.000003  -0.000003   0.000001   0.001345
    27  H    0.000007  -0.000389   0.000158  -0.000016   0.000003   0.000300
    28  H    0.000001  -0.000073   0.000363  -0.000057   0.000001   0.000083
    29  H   -0.012537  -0.027241   0.008339  -0.000788  -0.000024  -0.000100
    30  H   -0.013231  -0.010421  -0.012795  -0.004915   0.005064   0.000204
    31  H    0.379599  -0.025889   0.019432   0.000213   0.001798  -0.000775
    32  H   -0.014061   0.350128  -0.012581  -0.022738   0.002749   0.003168
    33  H    0.000523  -0.021716   0.006946   0.342913  -0.000295  -0.000237
    34  H   -0.000397  -0.014833  -0.020838   0.364703   0.031245   0.001548
              13         14         15         16         17         18
     1  C    0.002926   0.388550   0.366985   0.397251  -0.006600  -0.008431
     2  C    0.000016  -0.006751   0.008116  -0.006041   0.406955   0.402695
     3  C    0.398342   0.000016  -0.002125   0.000051   0.000000   0.000000
     4  C    0.402611  -0.000000   0.000290   0.000000   0.000000   0.000000
     5  C    0.412055   0.000030  -0.001264   0.000008   0.000000  -0.000000
     6  C   -0.000063  -0.009045  -0.019237   0.009033  -0.013838   0.007696
     7  C   -0.000009  -0.032085  -0.005030  -0.017545  -0.029229  -0.008032
     8  C    0.003572  -0.008919   0.015613  -0.000452   0.000255  -0.000471
     9  C   -0.019935   0.001113  -0.005601   0.000144   0.000056   0.000013
    10  N    0.000233   0.000064   0.000330  -0.000001  -0.000003   0.000002
    11  O   -0.000161  -0.000019  -0.000135   0.000001  -0.000001   0.000001
    12  O    0.312433   0.000035   0.015030   0.000061  -0.000000   0.000000
    13  Si  11.834611  -0.000156   0.000206  -0.000172  -0.000001  -0.000000
    14  H   -0.000156   0.643839  -0.025361  -0.015526   0.005378  -0.000632
    15  H    0.000206  -0.025361   0.630485  -0.013425  -0.000193   0.000327
    16  H   -0.000172  -0.015526  -0.013425   0.553852  -0.000877   0.003677
    17  H   -0.000001   0.005378  -0.000193  -0.000877   0.584906  -0.019082
    18  H   -0.000000  -0.000632   0.000327   0.003677  -0.019082   0.578326
    19  H   -0.000001  -0.000352  -0.000723   0.000361  -0.016239  -0.019540
    20  H   -0.009289   0.000001  -0.000008  -0.000002   0.000000  -0.000000
    21  H   -0.025143  -0.000013   0.001736   0.000114  -0.000000  -0.000000
    22  H   -0.014464  -0.000001   0.000068  -0.000001  -0.000000  -0.000000
    23  H   -0.017641   0.000000  -0.000004  -0.000000   0.000000  -0.000000
    24  H   -0.017536  -0.000000  -0.000004  -0.000000  -0.000000   0.000000
    25  H   -0.010386   0.000000  -0.000009  -0.000000  -0.000000  -0.000000
    26  H   -0.019495  -0.000001   0.000032   0.000000  -0.000000   0.000000
    27  H   -0.021150   0.000163   0.000443  -0.000015  -0.000000   0.000000
    28  H   -0.010625  -0.000010  -0.000077   0.000000   0.000000   0.000000
    29  H    0.000006   0.007227  -0.001013   0.000028   0.008393  -0.000015
    30  H   -0.000002  -0.000132  -0.000175  -0.000300  -0.001353  -0.000163
    31  H    0.000026   0.011364  -0.015515  -0.002995   0.007922  -0.005823
    32  H   -0.001116   0.002796  -0.001388  -0.000315  -0.000014   0.000006
    33  H   -0.000024   0.000038  -0.000016  -0.000001   0.000001   0.000000
    34  H   -0.000098  -0.000010   0.000013  -0.000000   0.000001  -0.000000
              19         20         21         22         23         24
     1  C    0.012899   0.000013  -0.000009   0.000002   0.000000   0.000000
     2  C    0.390637   0.000001   0.000001   0.000000   0.000000  -0.000000
     3  C    0.000000   0.375048   0.373969   0.373013  -0.004188   0.002380
     4  C   -0.000000  -0.000404   0.002934  -0.001706   0.374828   0.372294
     5  C    0.000000   0.000904  -0.001206   0.000303   0.001201  -0.002879
     6  C   -0.005340   0.000001   0.000002  -0.000000   0.000000  -0.000000
     7  C   -0.042074  -0.000010  -0.000002   0.000001  -0.000000  -0.000000
     8  C    0.000883  -0.000001   0.000003   0.000003   0.000002   0.000013
     9  C   -0.000143  -0.000012  -0.000048  -0.000001  -0.000006  -0.000013
    10  N   -0.000042   0.000000   0.000000   0.000000   0.000000  -0.000001
    11  O   -0.000018  -0.000009   0.000000   0.000000   0.000001   0.000000
    12  O   -0.000000   0.000197  -0.000088   0.000719   0.000466   0.000763
    13  Si  -0.000001  -0.009289  -0.025143  -0.014464  -0.017641  -0.017536
    14  H   -0.000352   0.000001  -0.000013  -0.000001   0.000000  -0.000000
    15  H   -0.000723  -0.000008   0.001736   0.000068  -0.000004  -0.000004
    16  H    0.000361  -0.000002   0.000114  -0.000001  -0.000000  -0.000000
    17  H   -0.016239   0.000000  -0.000000  -0.000000   0.000000  -0.000000
    18  H   -0.019540  -0.000000  -0.000000  -0.000000  -0.000000   0.000000
    19  H    0.625509  -0.000000  -0.000000  -0.000000   0.000000  -0.000000
    20  H   -0.000000   0.552098  -0.015134  -0.017017   0.000744  -0.000038
    21  H   -0.000000  -0.015134   0.581734  -0.012491   0.000137  -0.000118
    22  H   -0.000000  -0.017017  -0.012491   0.558465   0.001574  -0.000277
    23  H    0.000000   0.000744   0.000137   0.001574   0.547106  -0.012975
    24  H   -0.000000  -0.000038  -0.000118  -0.000277  -0.012975   0.578670
    25  H    0.000000  -0.000144  -0.000081   0.000004  -0.015557  -0.011526
    26  H   -0.000000  -0.000040   0.000035   0.000006  -0.000142   0.001105
    27  H   -0.000000  -0.000030   0.000613  -0.000020  -0.000035  -0.000009
    28  H   -0.000000  -0.000021  -0.000036  -0.000032  -0.000043   0.000889
    29  H   -0.002107   0.000000   0.000000   0.000000   0.000000   0.000000
    30  H    0.005942  -0.000000  -0.000000  -0.000000  -0.000000   0.000000
    31  H   -0.012001   0.000016  -0.000010  -0.000002   0.000000   0.000000
    32  H   -0.000049  -0.000003  -0.000016  -0.000000  -0.000000  -0.000000
    33  H    0.000002  -0.000000  -0.000000   0.000000   0.000000   0.000000
    34  H   -0.000011   0.000000  -0.000000  -0.000000  -0.000000  -0.000001
              25         26         27         28         29         30
     1  C    0.000000  -0.000003   0.000346   0.000011  -0.009547   0.009715
     2  C    0.000000  -0.000000  -0.000000  -0.000000  -0.003204  -0.001445
     3  C    0.002097  -0.000224  -0.000832   0.001255  -0.000000   0.000001
     4  C    0.369607   0.000102   0.001920  -0.001129  -0.000000  -0.000000
     5  C    0.001127   0.379611   0.376324   0.373245  -0.000000  -0.000002
     6  C   -0.000000  -0.000000  -0.000033   0.000021   0.387809   0.367973
     7  C    0.000000  -0.000000   0.000007   0.000001  -0.012537  -0.013231
     8  C    0.000048   0.000058  -0.000389  -0.000073  -0.027241  -0.010421
     9  C    0.000457  -0.000003   0.000158   0.000363   0.008339  -0.012795
    10  N   -0.000002  -0.000003  -0.000016  -0.000057  -0.000788  -0.004915
    11  O    0.000091   0.000001   0.000003   0.000001  -0.000024   0.005064
    12  O   -0.000493   0.001345   0.000300   0.000083  -0.000100   0.000204
    13  Si  -0.010386  -0.019495  -0.021150  -0.010625   0.000006  -0.000002
    14  H    0.000000  -0.000001   0.000163  -0.000010   0.007227  -0.000132
    15  H   -0.000009   0.000032   0.000443  -0.000077  -0.001013  -0.000175
    16  H   -0.000000   0.000000  -0.000015   0.000000   0.000028  -0.000300
    17  H   -0.000000  -0.000000  -0.000000   0.000000   0.008393  -0.001353
    18  H   -0.000000   0.000000   0.000000   0.000000  -0.000015  -0.000163
    19  H    0.000000  -0.000000  -0.000000  -0.000000  -0.002107   0.005942
    20  H   -0.000144  -0.000040  -0.000030  -0.000021   0.000000  -0.000000
    21  H   -0.000081   0.000035   0.000613  -0.000036   0.000000  -0.000000
    22  H    0.000004   0.000006  -0.000020  -0.000032   0.000000  -0.000000
    23  H   -0.015557  -0.000142  -0.000035  -0.000043   0.000000  -0.000000
    24  H   -0.011526   0.001105  -0.000009   0.000889   0.000000   0.000000
    25  H    0.573630  -0.000112  -0.000049  -0.000012   0.000000  -0.000000
    26  H   -0.000112   0.545491  -0.004894  -0.016029  -0.000000   0.000000
    27  H   -0.000049  -0.004894   0.570817  -0.020324   0.000003  -0.000000
    28  H   -0.000012  -0.016029  -0.020324   0.583582  -0.000000   0.000000
    29  H    0.000000  -0.000000   0.000003  -0.000000   0.596123  -0.027424
    30  H   -0.000000   0.000000  -0.000000   0.000000  -0.027424   0.607447
    31  H   -0.000000  -0.000000   0.000004   0.000001   0.008613  -0.009926
    32  H   -0.000007  -0.000011   0.002849   0.000601  -0.009016   0.006911
    33  H    0.000000   0.000000   0.000003   0.000002   0.004546  -0.000577
    34  H   -0.000002  -0.000000  -0.000001  -0.000001  -0.000999   0.005810
              31         32         33         34
     1  C   -0.030658   0.014014  -0.000055   0.000084
     2  C   -0.018867   0.000003  -0.000024   0.000005
     3  C    0.000081   0.000049  -0.000000   0.000000
     4  C   -0.000003   0.000044  -0.000000   0.000005
     5  C   -0.000004   0.000934   0.000001   0.000013
     6  C   -0.016612  -0.006679  -0.003895  -0.000896
     7  C    0.379599  -0.014061   0.000523  -0.000397
     8  C   -0.025889   0.350128  -0.021716  -0.014833
     9  C    0.019432  -0.012581   0.006946  -0.020838
    10  N    0.000213  -0.022738   0.342913   0.364703
    11  O    0.001798   0.002749  -0.000295   0.031245
    12  O   -0.000775   0.003168  -0.000237   0.001548
    13  Si   0.000026  -0.001116  -0.000024  -0.000098
    14  H    0.011364   0.002796   0.000038  -0.000010
    15  H   -0.015515  -0.001388  -0.000016   0.000013
    16  H   -0.002995  -0.000315  -0.000001  -0.000000
    17  H    0.007922  -0.000014   0.000001   0.000001
    18  H   -0.005823   0.000006   0.000000  -0.000000
    19  H   -0.012001  -0.000049   0.000002  -0.000011
    20  H    0.000016  -0.000003  -0.000000   0.000000
    21  H   -0.000010  -0.000016  -0.000000  -0.000000
    22  H   -0.000002  -0.000000   0.000000  -0.000000
    23  H    0.000000  -0.000000   0.000000  -0.000000
    24  H    0.000000  -0.000000   0.000000  -0.000001
    25  H   -0.000000  -0.000007   0.000000  -0.000002
    26  H   -0.000000  -0.000011   0.000000  -0.000000
    27  H    0.000004   0.002849   0.000003  -0.000001
    28  H    0.000001   0.000601   0.000002  -0.000001
    29  H    0.008613  -0.009016   0.004546  -0.000999
    30  H   -0.009926   0.006911  -0.000577   0.005810
    31  H    0.661907   0.000269   0.000004   0.000011
    32  H    0.000269   0.557427  -0.002756   0.006178
    33  H    0.000004  -0.002756   0.478075  -0.017016
    34  H    0.000011   0.006178  -0.017016   0.485871
          Atomic-Atomic Spin Densities.
               1          2          3          4          5          6
     1  C    0.000870  -0.002051   0.000021   0.000000  -0.000045   0.000925
     2  C   -0.002051   0.031321   0.000001   0.000000  -0.000000  -0.005872
     3  C    0.000021   0.000001   0.055529  -0.000370  -0.002311   0.000017
     4  C    0.000000   0.000000  -0.000370  -0.003343  -0.000411   0.000001
     5  C   -0.000045  -0.000000  -0.002311  -0.000411   0.061605  -0.000073
     6  C    0.000925  -0.005872   0.000017   0.000001  -0.000073   0.082877
     7  C   -0.000770   0.004481  -0.000022  -0.000000   0.000028   0.014500
     8  C   -0.000284   0.000774  -0.000136  -0.000020   0.001247   0.056128
     9  C    0.000148   0.000077   0.000088   0.000046  -0.000604   0.000748
    10  N   -0.000012  -0.000071   0.000001   0.000003  -0.000170  -0.015484
    11  O   -0.000005   0.000008  -0.000011  -0.000008   0.000007   0.001119
    12  O    0.000066   0.000001  -0.000932   0.000012  -0.002111   0.000559
    13  Si  -0.000067   0.000000   0.006285   0.002344   0.009044  -0.000051
    14  H    0.000575   0.000370   0.000003   0.000000  -0.000008   0.000993
    15  H    0.000961   0.000287   0.000352  -0.000001  -0.000240   0.001038
    16  H    0.001866  -0.000959  -0.000025  -0.000000   0.000008  -0.000228
    17  H   -0.000052   0.000819   0.000000   0.000000  -0.000000  -0.000207
    18  H    0.000624  -0.000306  -0.000000  -0.000000   0.000000   0.000253
    19  H   -0.000036  -0.000223   0.000000   0.000000  -0.000000  -0.000722
    20  H    0.000002  -0.000000  -0.001024   0.000030   0.000043  -0.000002
    21  H    0.000002  -0.000001  -0.000660  -0.000032   0.000133  -0.000003
    22  H   -0.000000  -0.000000  -0.000806  -0.000025   0.000159  -0.000000
    23  H   -0.000000  -0.000000  -0.000560   0.000761   0.000105  -0.000000
    24  H    0.000000   0.000000   0.000141   0.000640  -0.000374   0.000000
    25  H   -0.000000   0.000000   0.000026   0.000357  -0.000002   0.000000
    26  H    0.000001   0.000000   0.000192  -0.000072  -0.001057   0.000001
    27  H    0.000033   0.000001   0.000093  -0.000020  -0.000686   0.000034
    28  H    0.000005   0.000000   0.000101   0.000100  -0.002386   0.000018
    29  H    0.000038  -0.000400  -0.000000  -0.000000   0.000001  -0.000963
    30  H   -0.000020  -0.001268  -0.000001  -0.000000   0.000002  -0.001715
    31  H   -0.000133   0.000585   0.000005   0.000000  -0.000001   0.001461
    32  H   -0.000614  -0.000148  -0.000049  -0.000005   0.000776  -0.006228
    33  H   -0.000002  -0.000021  -0.000000  -0.000000   0.000005  -0.002480
    34  H   -0.000003  -0.000004  -0.000000  -0.000000   0.000003  -0.000843
               7          8          9         10         11         12
     1  C   -0.000770  -0.000284   0.000148  -0.000012  -0.000005   0.000066
     2  C    0.004481   0.000774   0.000077  -0.000071   0.000008   0.000001
     3  C   -0.000022  -0.000136   0.000088   0.000001  -0.000011  -0.000932
     4  C   -0.000000  -0.000020   0.000046   0.000003  -0.000008   0.000012
     5  C    0.000028   0.001247  -0.000604  -0.000170   0.000007  -0.002111
     6  C    0.014500   0.056128   0.000748  -0.015484   0.001119   0.000559
     7  C    0.019167  -0.007594  -0.000308   0.000911  -0.000214  -0.000124
     8  C   -0.007594   0.014250   0.003741  -0.051762  -0.000713  -0.006515
     9  C   -0.000308   0.003741  -0.008697  -0.001401   0.003494   0.003721
    10  N    0.000911  -0.051762  -0.001401   0.675339  -0.000761   0.000852
    11  O   -0.000214  -0.000713   0.003494  -0.000761   0.002720   0.000327
    12  O   -0.000124  -0.006515   0.003721   0.000852   0.000327   0.042736
    13  Si   0.000014   0.000855  -0.000474  -0.000216   0.000067  -0.002027
    14  H   -0.000880  -0.000176   0.000074  -0.000007   0.000000   0.000006
    15  H   -0.001207  -0.000550   0.000303  -0.000014   0.000006   0.000012
    16  H   -0.000331   0.000036  -0.000025   0.000002  -0.000000  -0.000000
    17  H    0.000129  -0.000003   0.000003  -0.000003   0.000000   0.000000
    18  H   -0.000882  -0.000007  -0.000006   0.000002  -0.000000   0.000000
    19  H    0.001413   0.000065  -0.000016   0.000003   0.000001   0.000000
    20  H    0.000002   0.000008  -0.000003  -0.000000   0.000003   0.000108
    21  H    0.000003   0.000010  -0.000006  -0.000000   0.000000   0.000004
    22  H    0.000000   0.000001  -0.000001  -0.000000   0.000000   0.000008
    23  H    0.000000   0.000002  -0.000002  -0.000000   0.000001   0.000018
    24  H   -0.000000  -0.000004   0.000006   0.000001  -0.000001   0.000011
    25  H   -0.000000  -0.000001  -0.000002   0.000000  -0.000001   0.000008
    26  H   -0.000000  -0.000022   0.000011   0.000002  -0.000000   0.000012
    27  H   -0.000015  -0.000195   0.000067   0.000028  -0.000000   0.000062
    28  H   -0.000004  -0.000421   0.000134   0.000185  -0.000001   0.000369
    29  H    0.001089   0.000396  -0.000143   0.000330  -0.000004  -0.000002
    30  H    0.002000  -0.002621  -0.000373   0.002643  -0.000339  -0.000024
    31  H   -0.000563  -0.000210   0.000174  -0.000033   0.000006  -0.000002
    32  H    0.001762   0.012456  -0.002817  -0.002307  -0.000080  -0.001372
    33  H    0.000146  -0.001082  -0.000800  -0.000834  -0.000075  -0.000020
    34  H    0.000060   0.000522  -0.000308   0.000675  -0.000031  -0.000055
              13         14         15         16         17         18
     1  C   -0.000067   0.000575   0.000961   0.001866  -0.000052   0.000624
     2  C    0.000000   0.000370   0.000287  -0.000959   0.000819  -0.000306
     3  C    0.006285   0.000003   0.000352  -0.000025   0.000000  -0.000000
     4  C    0.002344   0.000000  -0.000001  -0.000000   0.000000  -0.000000
     5  C    0.009044  -0.000008  -0.000240   0.000008  -0.000000   0.000000
     6  C   -0.000051   0.000993   0.001038  -0.000228  -0.000207   0.000253
     7  C    0.000014  -0.000880  -0.001207  -0.000331   0.000129  -0.000882
     8  C    0.000855  -0.000176  -0.000550   0.000036  -0.000003  -0.000007
     9  C   -0.000474   0.000074   0.000303  -0.000025   0.000003  -0.000006
    10  N   -0.000216  -0.000007  -0.000014   0.000002  -0.000003   0.000002
    11  O    0.000067   0.000000   0.000006  -0.000000   0.000000  -0.000000
    12  O   -0.002027   0.000006   0.000012  -0.000000   0.000000   0.000000
    13  Si  -0.015463  -0.000005   0.000183  -0.000004  -0.000000  -0.000000
    14  H   -0.000005   0.000635   0.000193  -0.000227   0.000002  -0.000037
    15  H    0.000183   0.000193   0.003425  -0.000739   0.000007  -0.000048
    16  H   -0.000004  -0.000227  -0.000739   0.005265  -0.000031   0.000452
    17  H   -0.000000   0.000002   0.000007  -0.000031  -0.001015  -0.000381
    18  H   -0.000000  -0.000037  -0.000048   0.000452  -0.000381   0.011314
    19  H    0.000000   0.000006   0.000004  -0.000007   0.000060  -0.000056
    20  H    0.000100  -0.000000  -0.000037   0.000006  -0.000000   0.000000
    21  H    0.001050  -0.000002  -0.000152   0.000031  -0.000000   0.000000
    22  H    0.000509  -0.000000  -0.000011   0.000001  -0.000000   0.000000
    23  H   -0.000017  -0.000000  -0.000001   0.000000  -0.000000   0.000000
    24  H   -0.000346   0.000000   0.000000  -0.000000   0.000000  -0.000000
    25  H   -0.000179  -0.000000   0.000000  -0.000000   0.000000  -0.000000
    26  H    0.000759   0.000000   0.000007  -0.000000   0.000000  -0.000000
    27  H    0.000963   0.000010   0.000070  -0.000007   0.000000  -0.000000
    28  H   -0.000671   0.000002   0.000021  -0.000001   0.000000  -0.000000
    29  H    0.000001  -0.000061  -0.000017   0.000013  -0.000025   0.000023
    30  H    0.000003  -0.000045  -0.000056   0.000028  -0.000060   0.000110
    31  H   -0.000005  -0.000043   0.000080  -0.000008  -0.000006  -0.000121
    32  H    0.000400  -0.000399  -0.000621   0.000069  -0.000007   0.000007
    33  H    0.000008  -0.000006  -0.000005   0.000001  -0.000001   0.000001
    34  H    0.000006  -0.000001  -0.000002   0.000000  -0.000000   0.000000
              19         20         21         22         23         24
     1  C   -0.000036   0.000002   0.000002  -0.000000  -0.000000   0.000000
     2  C   -0.000223  -0.000000  -0.000001  -0.000000  -0.000000   0.000000
     3  C    0.000000  -0.001024  -0.000660  -0.000806  -0.000560   0.000141
     4  C    0.000000   0.000030  -0.000032  -0.000025   0.000761   0.000640
     5  C   -0.000000   0.000043   0.000133   0.000159   0.000105  -0.000374
     6  C   -0.000722  -0.000002  -0.000003  -0.000000  -0.000000   0.000000
     7  C    0.001413   0.000002   0.000003   0.000000   0.000000  -0.000000
     8  C    0.000065   0.000008   0.000010   0.000001   0.000002  -0.000004
     9  C   -0.000016  -0.000003  -0.000006  -0.000001  -0.000002   0.000006
    10  N    0.000003  -0.000000  -0.000000  -0.000000  -0.000000   0.000001
    11  O    0.000001   0.000003   0.000000   0.000000   0.000001  -0.000001
    12  O    0.000000   0.000108   0.000004   0.000008   0.000018   0.000011
    13  Si   0.000000   0.000100   0.001050   0.000509  -0.000017  -0.000346
    14  H    0.000006  -0.000000  -0.000002  -0.000000  -0.000000   0.000000
    15  H    0.000004  -0.000037  -0.000152  -0.000011  -0.000001   0.000000
    16  H   -0.000007   0.000006   0.000031   0.000001   0.000000  -0.000000
    17  H    0.000060  -0.000000  -0.000000  -0.000000  -0.000000   0.000000
    18  H   -0.000056   0.000000   0.000000   0.000000   0.000000  -0.000000
    19  H   -0.001901  -0.000000  -0.000000  -0.000000  -0.000000   0.000000
    20  H   -0.000000  -0.000665   0.000339   0.000464   0.000055  -0.000004
    21  H   -0.000000   0.000339  -0.001215   0.000189   0.000009  -0.000001
    22  H   -0.000000   0.000464   0.000189   0.000419   0.000179  -0.000018
    23  H   -0.000000   0.000055   0.000009   0.000179   0.003711  -0.000345
    24  H    0.000000  -0.000004  -0.000001  -0.000018  -0.000345   0.001438
    25  H    0.000000  -0.000001   0.000001   0.000003  -0.000104   0.000012
    26  H    0.000000  -0.000002  -0.000022  -0.000035  -0.000012   0.000075
    27  H    0.000000  -0.000001  -0.000026  -0.000008  -0.000001   0.000003
    28  H   -0.000000  -0.000001  -0.000005  -0.000005  -0.000009   0.000073
    29  H   -0.000004   0.000000   0.000000   0.000000   0.000000  -0.000000
    30  H    0.000123   0.000000   0.000000   0.000000   0.000000  -0.000000
    31  H    0.000057  -0.000002  -0.000001  -0.000000  -0.000000   0.000000
    32  H    0.000004   0.000002   0.000007   0.000001   0.000000  -0.000001
    33  H    0.000001   0.000000   0.000000   0.000000   0.000000  -0.000000
    34  H    0.000001   0.000000   0.000000   0.000000   0.000000  -0.000000
              25         26         27         28         29         30
     1  C   -0.000000   0.000001   0.000033   0.000005   0.000038  -0.000020
     2  C    0.000000   0.000000   0.000001   0.000000  -0.000400  -0.001268
     3  C    0.000026   0.000192   0.000093   0.000101  -0.000000  -0.000001
     4  C    0.000357  -0.000072  -0.000020   0.000100  -0.000000  -0.000000
     5  C   -0.000002  -0.001057  -0.000686  -0.002386   0.000001   0.000002
     6  C    0.000000   0.000001   0.000034   0.000018  -0.000963  -0.001715
     7  C   -0.000000  -0.000000  -0.000015  -0.000004   0.001089   0.002000
     8  C   -0.000001  -0.000022  -0.000195  -0.000421   0.000396  -0.002621
     9  C   -0.000002   0.000011   0.000067   0.000134  -0.000143  -0.000373
    10  N    0.000000   0.000002   0.000028   0.000185   0.000330   0.002643
    11  O   -0.000001  -0.000000  -0.000000  -0.000001  -0.000004  -0.000339
    12  O    0.000008   0.000012   0.000062   0.000369  -0.000002  -0.000024
    13  Si  -0.000179   0.000759   0.000963  -0.000671   0.000001   0.000003
    14  H   -0.000000   0.000000   0.000010   0.000002  -0.000061  -0.000045
    15  H    0.000000   0.000007   0.000070   0.000021  -0.000017  -0.000056
    16  H   -0.000000  -0.000000  -0.000007  -0.000001   0.000013   0.000028
    17  H    0.000000   0.000000   0.000000   0.000000  -0.000025  -0.000060
    18  H   -0.000000  -0.000000  -0.000000  -0.000000   0.000023   0.000110
    19  H    0.000000   0.000000   0.000000  -0.000000  -0.000004   0.000123
    20  H   -0.000001  -0.000002  -0.000001  -0.000001   0.000000   0.000000
    21  H    0.000001  -0.000022  -0.000026  -0.000005   0.000000   0.000000
    22  H    0.000003  -0.000035  -0.000008  -0.000005   0.000000   0.000000
    23  H   -0.000104  -0.000012  -0.000001  -0.000009   0.000000   0.000000
    24  H    0.000012   0.000075   0.000003   0.000073  -0.000000  -0.000000
    25  H   -0.000194   0.000005   0.000001   0.000001  -0.000000  -0.000000
    26  H    0.000005  -0.000660   0.000029   0.000877  -0.000000  -0.000000
    27  H    0.000001   0.000029  -0.001797   0.000594  -0.000001  -0.000001
    28  H    0.000001   0.000877   0.000594   0.001030  -0.000000  -0.000001
    29  H   -0.000000  -0.000000  -0.000001  -0.000000  -0.005146   0.000926
    30  H   -0.000000  -0.000000  -0.000001  -0.000001   0.000926  -0.003042
    31  H   -0.000000   0.000000   0.000000   0.000000  -0.000068  -0.000142
    32  H   -0.000000  -0.000026  -0.000362  -0.000295   0.000194   0.000261
    33  H   -0.000000  -0.000000  -0.000002  -0.000007   0.000076   0.000703
    34  H   -0.000000  -0.000000  -0.000000  -0.000002   0.000040   0.000126
              31         32         33         34
     1  C   -0.000133  -0.000614  -0.000002  -0.000003
     2  C    0.000585  -0.000148  -0.000021  -0.000004
     3  C    0.000005  -0.000049  -0.000000  -0.000000
     4  C    0.000000  -0.000005  -0.000000  -0.000000
     5  C   -0.000001   0.000776   0.000005   0.000003
     6  C    0.001461  -0.006228  -0.002480  -0.000843
     7  C   -0.000563   0.001762   0.000146   0.000060
     8  C   -0.000210   0.012456  -0.001082   0.000522
     9  C    0.000174  -0.002817  -0.000800  -0.000308
    10  N   -0.000033  -0.002307  -0.000834   0.000675
    11  O    0.000006  -0.000080  -0.000075  -0.000031
    12  O   -0.000002  -0.001372  -0.000020  -0.000055
    13  Si  -0.000005   0.000400   0.000008   0.000006
    14  H   -0.000043  -0.000399  -0.000006  -0.000001
    15  H    0.000080  -0.000621  -0.000005  -0.000002
    16  H   -0.000008   0.000069   0.000001   0.000000
    17  H   -0.000006  -0.000007  -0.000001  -0.000000
    18  H   -0.000121   0.000007   0.000001   0.000000
    19  H    0.000057   0.000004   0.000001   0.000001
    20  H   -0.000002   0.000002   0.000000   0.000000
    21  H   -0.000001   0.000007   0.000000   0.000000
    22  H   -0.000000   0.000001   0.000000   0.000000
    23  H   -0.000000   0.000000   0.000000   0.000000
    24  H    0.000000  -0.000001  -0.000000  -0.000000
    25  H   -0.000000  -0.000000  -0.000000  -0.000000
    26  H    0.000000  -0.000026  -0.000000  -0.000000
    27  H    0.000000  -0.000362  -0.000002  -0.000000
    28  H    0.000000  -0.000295  -0.000007  -0.000002
    29  H   -0.000068   0.000194   0.000076   0.000040
    30  H   -0.000142   0.000261   0.000703   0.000126
    31  H   -0.001881  -0.000074  -0.000004  -0.000006
    32  H   -0.000074   0.027909   0.000889   0.000048
    33  H   -0.000004   0.000889  -0.006990   0.002549
    34  H   -0.000006   0.000048   0.002549  -0.012773
 Mulliken charges and spin densities:
               1          2
     1  C   -0.038730   0.002046
     2  C    0.007207   0.027401
     3  C   -0.417355   0.055949
     4  C   -0.383321  -0.000012
     5  C   -0.377250   0.062687
     6  C    0.000096   0.125801
     7  C   -0.219735   0.032792
     8  C   -0.128256   0.018174
     9  C    0.338184  -0.003150
    10  N    0.019906   0.607903
    11  O   -0.191222   0.005516
    12  O   -0.407494   0.035708
    13  Si   0.800433   0.003065
    14  H    0.038402   0.000973
    15  H    0.051626   0.003251
    16  H    0.093086   0.005185
    17  H    0.073564  -0.000771
    18  H    0.069446   0.010941
    19  H    0.062408  -0.001227
    20  H    0.113140  -0.000580
    21  H    0.093119  -0.000348
    22  H    0.111854   0.001023
    23  H    0.124532   0.003792
    24  H    0.089262   0.001308
    25  H    0.091318  -0.000071
    26  H    0.113174   0.000064
    27  H    0.093844  -0.001133
    28  H    0.088418  -0.000298
    29  H    0.072929  -0.003706
    30  H    0.073793  -0.002781
    31  H    0.047819  -0.000934
    32  H    0.122624   0.029380
    33  H    0.213560  -0.007951
    34  H    0.159618  -0.009998
 Sum of Mulliken charges =   1.00000   1.00000
 Mulliken charges and spin densities with hydrogens summed into heavy atoms:
               1          2
     1  C    0.144384   0.011455
     2  C    0.212625   0.036344
     3  C   -0.099243   0.056045
     4  C   -0.078209   0.005017
     5  C   -0.081814   0.061320
     6  C    0.146818   0.119314
     7  C   -0.171915   0.031858
     8  C   -0.005631   0.047555
     9  C    0.338184  -0.003150
    10  N    0.393084   0.589954
    11  O   -0.191222   0.005516
    12  O   -0.407494   0.035708
    13  Si   0.800433   0.003065
 APT charges:
               1
     1  C    0.042012
     2  C    0.371819
     3  C    0.470866
     4  C   -0.410147
     5  C   -0.037953
     6  C    1.096291
     7  C   -0.694453
     8  C   -0.854071
     9  C   -0.461676
    10  N    0.062799
    11  O   -0.107733
    12  O    0.623666
    13  Si   0.179185
    14  H    0.036864
    15  H   -0.033007
    16  H    0.064502
    17  H    0.052189
    18  H   -0.060638
    19  H    0.002101
    20  H   -0.093956
    21  H   -0.177566
    22  H   -0.025902
    23  H    0.091262
    24  H    0.078611
    25  H    0.051009
    26  H    0.092961
    27  H   -0.071731
    28  H   -0.032377
    29  H    0.027319
    30  H   -0.003572
    31  H   -0.022235
    32  H    0.196487
    33  H    0.427603
    34  H    0.119472
 Sum of APT charges =   1.00000
 APT charges with hydrogens summed into heavy atoms:
               1
     1  C    0.110371
     2  C    0.365471
     3  C    0.173442
     4  C   -0.189265
     5  C   -0.049101
     6  C    1.120038
     7  C   -0.716688
     8  C   -0.657583
     9  C   -0.461676
    10  N    0.609874
    11  O   -0.107733
    12  O    0.623666
    13  Si   0.179185
 Electronic spatial extent (au):  <R**2>=           3575.3549
 Charge=              1.0000 electrons
 Dipole moment (field-independent basis, Debye):
    X=             -4.0156    Y=              2.8694    Z=              3.1829  Tot=              5.8728
 Quadrupole moment (field-independent basis, Debye-Ang):
   XX=            -49.0135   YY=            -65.9827   ZZ=            -84.4953
   XY=             -8.3834   XZ=             -3.8663   YZ=              7.6674
 Traceless Quadrupole moment (field-independent basis, Debye-Ang):
   XX=             17.4837   YY=              0.5145   ZZ=            -17.9981
   XY=             -8.3834   XZ=             -3.8663   YZ=              7.6674
 Octapole moment (field-independent basis, Debye-Ang**2):
  XXX=            -12.4616  YYY=             48.1973  ZZZ=              2.8170  XYY=            -39.8442
  XXY=             12.4503  XXZ=              0.6584  XZZ=             -1.7950  YZZ=              0.7824
  YYZ=              5.6670  XYZ=             -8.6618
 Hexadecapole moment (field-independent basis, Debye-Ang**3):
 XXXX=          -2719.1749 YYYY=           -901.3495 ZZZZ=           -558.4578 XXXY=            -31.8375
 XXXZ=            -35.9965 YYYX=            -84.1285 YYYZ=             29.5700 ZZZX=            -14.9909
 ZZZY=             21.2353 XXYY=           -569.5820 XXZZ=           -553.5757 YYZZ=           -270.1021
 XXYZ=             36.5540 YYXZ=            -22.5388 ZZXY=             -8.9281
 N-N= 9.853409955292D+02 E-N=-3.943239488763D+03  KE= 8.421563759850D+02
  Exact polarizability: 451.331-122.447 239.250  -4.748  21.014 138.331
 Approx polarizability: 576.171-242.062 422.027 -13.898  28.632 193.767
                          Isotropic Fermi Contact Couplings
        Atom                 a.u.       MegaHertz       Gauss      10(-4) cm-1
     1  C(13)             -0.00187      -2.10180      -0.74997      -0.70108
     2  C(13)              0.01425      16.01760       5.71548       5.34290
     3  C(13)              0.01834      20.62305       7.35882       6.87911
     4  C(13)             -0.00244      -2.73856      -0.97718      -0.91348
     5  C(13)              0.01287      14.46785       5.16249       4.82596
     6  C(13)              0.02857      32.11601      11.45979      10.71275
     7  C(13)              0.00170       1.91004       0.68155       0.63712
     8  C(13)             -0.01818     -20.43941      -7.29329      -6.81785
     9  C(13)             -0.00409      -4.60350      -1.64264      -1.53556
    10  N(14)              0.36614     118.30309      42.21349      39.46166
    11  O(17)              0.00118      -0.71470      -0.25502      -0.23840
    12  O(17)              0.01642      -9.95292      -3.55145      -3.31994
    13  Si(29)            -0.02413      21.44849       7.65335       7.15445
    14  H(1)               0.00058       2.60103       0.92811       0.86761
    15  H(1)               0.00144       6.45849       2.30455       2.15432
    16  H(1)               0.00220       9.81152       3.50100       3.27277
    17  H(1)              -0.00016      -0.73206      -0.26122      -0.24419
    18  H(1)               0.00476      21.26357       7.58737       7.09276
    19  H(1)              -0.00043      -1.94395      -0.69365      -0.64843
    20  H(1)              -0.00003      -0.12270      -0.04378      -0.04093
    21  H(1)               0.00013       0.59761       0.21324       0.19934
    22  H(1)               0.00059       2.63195       0.93914       0.87792
    23  H(1)               0.00147       6.57559       2.34634       2.19338
    24  H(1)               0.00064       2.86588       1.02262       0.95595
    25  H(1)              -0.00001      -0.03143      -0.01122      -0.01048
    26  H(1)               0.00029       1.28897       0.45994       0.42995
    27  H(1)              -0.00005      -0.21880      -0.07807      -0.07298
    28  H(1)               0.00001       0.05531       0.01974       0.01845
    29  H(1)              -0.00142      -6.32497      -2.25691      -2.10978
    30  H(1)              -0.00183      -8.18466      -2.92049      -2.73011
    31  H(1)              -0.00051      -2.28195      -0.81426      -0.76118
    32  H(1)               0.01468      65.62239      23.41570      21.88927
    33  H(1)              -0.00082      -3.66785      -1.30878      -1.22346
    34  H(1)              -0.00376     -16.79986      -5.99461      -5.60383
 --------------------------------------------------------
       Center         ----  Spin Dipole Couplings  ----
                      3XX-RR        3YY-RR        3ZZ-RR
 --------------------------------------------------------
     1   Atom       -0.000320      0.003158     -0.002838
     2   Atom        0.021123     -0.002819     -0.018304
     3   Atom       -0.028285      0.051782     -0.023496
     4   Atom       -0.001342      0.000633      0.000709
     5   Atom       -0.033465     -0.035222      0.068687
     6   Atom        0.055362      0.034804     -0.090166
     7   Atom       -0.014645      0.035086     -0.020441
     8   Atom        0.085539     -0.029000     -0.056539
     9   Atom       -0.001176     -0.000729      0.001905
    10   Atom        0.483737     -0.353338     -0.130400
    11   Atom        0.039425     -0.035886     -0.003539
    12   Atom       -0.071132     -0.021143      0.092276
    13   Atom       -0.026218      0.001011      0.025207
    14   Atom       -0.001696      0.002131     -0.000435
    15   Atom        0.000890      0.002326     -0.003216
    16   Atom       -0.001321      0.003564     -0.002243
    17   Atom        0.002449     -0.001661     -0.000787
    18   Atom       -0.001884      0.004593     -0.002709
    19   Atom        0.000775     -0.000391     -0.000384
    20   Atom       -0.002734     -0.000942      0.003676
    21   Atom       -0.000412      0.001517     -0.001105
    22   Atom        0.004675     -0.001138     -0.003537
    23   Atom        0.001028     -0.000560     -0.000468
    24   Atom        0.001603     -0.000881     -0.000722
    25   Atom        0.000794     -0.000518     -0.000276
    26   Atom        0.005233     -0.004040     -0.001193
    27   Atom        0.002586     -0.001552     -0.001034
    28   Atom       -0.002445      0.003894     -0.001450
    29   Atom        0.004565     -0.006425      0.001860
    30   Atom        0.002478     -0.000418     -0.002061
    31   Atom       -0.002427     -0.000355      0.002781
    32   Atom       -0.012139      0.006577      0.005562
    33   Atom        0.038411     -0.031284     -0.007126
    34   Atom       -0.033452     -0.021903      0.055355
 --------------------------------------------------------
                        XY            XZ            YZ
 --------------------------------------------------------
     1   Atom        0.003366      0.005813      0.003193
     2   Atom        0.032850      0.017280      0.012345
     3   Atom       -0.017072     -0.005403      0.027038
     4   Atom       -0.001369     -0.001289      0.003337
     5   Atom       -0.000965      0.009692      0.003904
     6   Atom        0.154781      0.054400      0.049392
     7   Atom        0.040766      0.020490      0.035617
     8   Atom        0.080316      0.061538      0.028964
     9   Atom       -0.007557     -0.008608      0.005904
    10   Atom        0.567867      0.760114      0.386944
    11   Atom       -0.011499     -0.028792     -0.005731
    12   Atom       -0.022947     -0.037978      0.106792
    13   Atom       -0.008553     -0.004771      0.058054
    14   Atom        0.000292     -0.000137     -0.002403
    15   Atom       -0.001277     -0.000606      0.000018
    16   Atom       -0.000570      0.000286     -0.000447
    17   Atom        0.002850     -0.003610      0.000130
[...]
 0.00002060,0.00009831,0.00009408,-0.00007020,0.00028371,0.00033000,-0.
 00041407,0.00065890,0.00016857,0.00007576,-0.00010830,0.00037835,-0.00
 018693,-0.00007316,0.00021281,-0.00000300,0.00000720,0.00001306,-0.000
 00761,0.00001655,0.00000524,0.00001502,0.00000155,0.00000802,-0.000003
 72,0.00000144,-0.00000570,0.00000298,-0.00000161,-0.00000748,-0.000006
 52,0.00000027,-0.00000381,-0.00001574,0.00000750,0.00003171,-0.0000046
 1,-0.00002444,0.00002360,0.00000894,-0.00000308,-0.00000029,-0.0638600
 4,0.10066664,-0.00027250,0.00105436,0.00083001,0.00131010,0.00002082,0
 .00111828,-0.00011025,-0.00042307,-0.00013520,-0.00019189,-0.00009187,
 -0.00015455,-0.00007589,-0.00005471,0.00021796,0.13247335,-0.12909016,
 -0.29420336,0.00259682,-0.00489214,-0.01160612,-0.01080493,0.00596432,
 0.00414570,-0.00254645,0.00081707,-0.00086875,0.00109959,0.00191049,0.
 00195803,0.00035939,-0.00064910,0.00103349,0.00054354,-0.00047609,0.00
 052421,0.00017239,0.00066136,-0.00028586,-0.00010370,-0.00043794,0.000
 30972,0.00012567,0.00012262,-0.00006116,-0.00007860,-0.00006963,0.0001
 2310,-0.00071002,0.00012395,0.00020934,-0.00008851,0.00013818,0.000266
 97,0.00023252,-0.00012817,-0.00014109,0.00005458,0.00009644,0.00000189
 ,0.00002077,0.00008195,0.00007299,0.00001240,0.00001715,0.00001381,0.0
 0007621,-0.00000833,0.00002228,-0.00000798,-0.00003909,0.00006168,-0.0
 0004270,0.00001398,-0.00000257,0.00000516,-0.00001803,-0.00002881,-0.0
 0001538,0.00000339,-0.00002867,0.00001758,0.00002815,-0.00005856,-0.13
 150907,0.13665611,0.31204742,-0.00101503,-0.00050729,-0.00209525,0.001
 60506,-0.00085551,0.00083403,0.00020704,0.00011917,0.00016301,0.000101
 73,0.00002875,-0.00000641,0.00000051,0.00014561,-0.00025164,-0.0421456
 5,-0.03276087,0.03302650,-0.00520263,-0.01575780,0.01033476,-0.0138860
 2,0.01373237,-0.01463890,0.00185945,-0.00151010,-0.00215359,0.00154139
 ,0.00673911,-0.00203649,0.00020924,-0.00063754,0.00070987,0.00011721,0
 .00084337,-0.00005693,-0.00047954,-0.00035983,0.00002827,-0.00005809,0
 .00016946,-0.00034354,-0.00009235,-0.00042911,0.00005618,-0.00002046,-
 0.00110629,0.00011639,0.00008207,-0.00005608,0.00005823,0.00008221,0.0
 0033687,-0.00013638,-0.00035663,0.00023883,-0.00084588,-0.00001925,-0.
 00001317,-0.00000123,0.00000676,-0.00002634,-0.00004476,-0.00004836,-0
 .00003597,-0.00002806,-0.00001073,0.00001054,0.00000383,0.00000517,-0.
 00000295,-0.00000506,0.00001563,-0.00000719,-0.00001092,0.00001482,0.0
 0002607,0.00003610,0.00002173,-0.00005171,0.00007022,0.00002502,-0.000
 07620,0.00014410,0.00036767,-0.00985311,0.00845733,0.05918114,-0.00492
 570,-0.00217272,-0.00304857,0.00052991,0.00061650,0.00063650,0.0000750
 5,0.00011658,0.00008689,0.00005532,0.00006292,0.00003170,0.00003034,0.
 00004465,0.00010651,-0.03655313,-0.20956529,0.13657285,-0.00121497,-0.
 01516535,0.01439487,0.00253610,-0.00690373,0.00555757,-0.00078669,-0.0
 0104072,0.00214928,-0.00171012,0.00004418,-0.00144220,-0.00032920,0.00
 086494,-0.00103534,0.00008822,0.00078875,-0.00021308,-0.00014541,-0.00
 046253,-0.00006575,0.00009123,0.00031112,-0.00027613,0.00022458,0.0002
 5998,-0.00010759,0.00025783,-0.00105065,0.00074773,-0.00006967,0.00000
 362,-0.00015997,0.00025957,0.00012105,-0.00028196,-0.00038761,0.000621
 40,-0.00026162,-0.00001122,-0.00002027,-0.00000288,-0.00000240,0.00000
 928,-0.00001527,-0.00000636,-0.00000347,-0.00001690,-0.00003401,0.0000
 0046,0.00000405,0.00000723,0.00001615,-0.00001536,0.00002721,-0.000005
 04,0.00001082,0.00000621,-0.00000674,-0.00004213,-0.00001836,0.0000157
 0,-0.00005749,0.00000240,0.00001353,-0.00001789,0.00146708,0.00936297,
 -0.00893933,0.03827039,0.22261251,-0.00221447,-0.00136384,-0.00108780,
 0.00051701,-0.00073682,0.00030132,0.00019191,0.00024549,0.00007079,0.0
 0006523,0.00000040,-0.00007915,0.00003620,0.00005867,-0.00051602,0.032
 25440,0.13630916,-0.16238400,-0.00354170,-0.01303919,0.00840215,-0.002
 82546,0.00165466,-0.00258708,0.00010191,-0.00214526,0.00065455,0.00016
 252,0.00095026,0.00004113,-0.00016875,0.00060850,-0.00013015,-0.000213
 96,0.00126711,-0.00046180,-0.00017499,-0.00059811,0.00051885,-0.000051
 53,-0.00011215,0.00029129,0.00002769,0.00014896,0.00003219,-0.00012980
 ,-0.00068940,0.00052923,-0.00004514,0.00019641,-0.00014373,0.00012638,
 -0.00010073,0.00002332,0.00001386,0.00024971,0.00009613,-0.00003496,-0
 .00006558,-0.00000787,-0.00001013,-0.00003721,-0.00002987,-0.00004085,
 -0.00001948,-0.00002624,-0.00000175,0.00002182,0.00000151,-0.00001828,
 0.00001872,0.00000049,0.00002932,-0.00001004,-0.00001023,-0.00001299,0
 .00004145,0.00010874,0.00002804,-0.00003720,0.00009090,0.00000464,-0.0
 0004743,0.00011341,0.00486460,0.02224700,-0.01701542,-0.02811207,-0.14
 583336,0.17246320,-0.00052852,0.00365039,0.00365082,-0.01376927,0.0094
 8083,0.02547151,-0.00023965,-0.00044954,-0.00039342,-0.00015194,-0.000
 04710,-0.00005981,-0.00012016,-0.00012208,0.00011810,0.00081014,-0.012
 38411,-0.02559385,-0.09695039,0.04756162,0.18895581,0.00166436,0.00018
 947,0.00110489,-0.00053089,0.00043507,-0.00055640,0.00019258,-0.000096
 74,-0.00043787,-0.00015869,-0.00020761,0.00053721,0.00000533,-0.000362
 35,-0.00019128,0.00029754,0.00089151,0.00031293,0.00128067,-0.00101727
 ,-0.00077471,0.00138236,-0.00039926,-0.00094894,0.00015629,0.00000562,
 -0.00045441,-0.00428371,0.00254313,-0.00117032,0.00094447,-0.00068723,
 -0.00021615,0.00058323,-0.00034562,0.00010845,0.00005774,0.00004016,0.
 00001098,0.00001763,0.00017998,0.00015079,0.00008581,0.00004470,0.0000
 1467,0.00005730,-0.00001241,-0.00001347,-0.00002250,-0.00003125,0.0000
 3072,-0.00003006,0.00000213,-0.00002406,0.00000272,-0.00000851,-0.0000
 0528,0.00001144,-0.00000399,-0.00000996,0.00001170,0.00002446,-0.00007
 072,-0.00130680,-0.00340958,-0.00183318,0.00020508,0.00086128,0.000334
 88,0.10963105,-0.01056311,0.00351215,0.03541081,0.00536599,-0.00495453
 ,-0.01339354,-0.00011463,-0.00000449,-0.00006427,-0.00006490,-0.000000
 13,-0.00001526,-0.00004691,-0.00003963,0.00015131,0.00556121,-0.010006
 42,-0.02294236,0.04603558,-0.04174274,-0.10314434,0.00023733,0.0005073
 1,0.00068631,-0.00020850,0.00154379,-0.00086251,0.00026156,0.00002153,
 0.00016240,0.00036808,-0.00041944,0.00071409,-0.00018041,-0.00069788,-
 0.00002775,0.00022021,0.00018236,0.00012703,-0.00108467,-0.00498962,0.
 00448346,0.00004422,0.00115419,-0.00027403,-0.00022491,0.00027362,-0.0
 0054044,0.00299767,-0.00089947,0.00043193,-0.00032485,0.00070401,0.000
 30805,0.00007691,0.00003117,-0.00081891,0.00003819,-0.00003783,-0.0000
 5401,-0.00000104,-0.00000354,0.00006391,-0.00000268,0.00001721,-0.0000
 2027,0.00001574,-0.00000965,-0.00000530,-0.00000763,-0.00000652,0.0000
 0665,-0.00000619,0.00000131,-0.00000225,0.00001816,-0.00000958,-0.0000
 3948,-0.00002719,0.00001299,-0.00003612,0.00001263,0.00001231,-0.00004
 368,-0.00312825,-0.00248213,-0.00207683,0.00065470,0.00049685,-0.00009
 136,-0.04615574,0.05793500,0.00560880,-0.00010479,-0.01669641,-0.00593
 704,0.00418903,0.00713286,-0.00024555,-0.00046450,-0.00031279,-0.00012
 176,-0.00006198,0.00000223,-0.00007969,-0.00011671,0.00020225,0.001739
 14,-0.00637251,-0.01452418,0.18696108,-0.10248312,-0.43187597,0.000388
 05,0.00023862,0.00086905,-0.00150892,0.00044590,-0.00095244,0.00025714
 ,0.00009657,-0.00006167,0.00059254,0.00006201,0.00052484,0.00026308,-0
 .00088726,0.00017131,0.00021984,0.00108625,-0.00005550,0.00093947,0.00
 324317,-0.00103503,-0.00000378,-0.00054868,0.00131488,0.00024742,0.000
 14219,-0.00020693,-0.00127951,0.00074000,0.00109141,0.00050723,-0.0001
 2012,0.00007472,-0.00027706,-0.00009201,0.00109100,0.00003512,0.000084
 18,0.00003701,0.00001456,0.00015002,0.00008861,0.00009010,0.00003286,0
 .00003750,0.00004692,-0.00001428,-0.00001007,-0.00000388,-0.00003474,0
 .00002036,-0.00004207,0.00000790,-0.00001665,-0.00000344,-0.00001524,-
 0.00001127,0.00001616,-0.00000259,-0.00000771,0.00000016,0.00002348,-0
 .00007194,-0.00110006,-0.00162002,0.00040551,-0.00034313,0.00051917,0.
 00105569,-0.18753212,0.10194953,0.45187579,-0.00008313,-0.00029639,-0.
 00138061,-0.00013147,0.00123737,0.00075609,0.00231163,0.00343168,0.002
 35063,0.00130316,0.00037513,0.00057615,0.00108976,0.00050081,-0.000764
 31,-0.01466683,0.02023488,-0.02035839,0.00302658,-0.00112472,0.0013238
 5,-0.02211332,-0.01515920,0.03096875,0.00014966,-0.00886451,0.00298839
 ,-0.01446206,-0.02101305,0.01996389,-0.00159231,0.00061565,0.00266141,
 -0.00073574,0.00491805,0.00030299,-0.00274290,-0.00533971,-0.00113583,
 -0.00098153,0.00023946,0.00104531,-0.00009926,-0.00052859,-0.00060713,
 0.00016573,-0.00020632,0.00067246,-0.00009128,0.00002751,-0.00003668,0
 .00031619,-0.00025855,-0.00008420,-0.00016404,-0.00013576,0.00006594,-
 0.00033661,-0.00057362,-0.00008273,-0.00023865,-0.00096384,-0.00067830
 ,-0.00071686,-0.00035459,-0.00031592,-0.00047504,0.00005376,0.00004853
 ,0.00016053,0.00025436,-0.00030676,0.00024928,-0.00003240,0.00017810,-
 0.00007001,-0.00001153,0.00005040,-0.00001144,0.00016811,-0.00003296,-
 0.00030186,-0.00012019,0.00034663,0.00023406,-0.00034081,0.00016047,-0
 .00195744,0.00080368,-0.00041320,0.00030983,0.00003538,0.00033225,0.05
 383206,-0.00026102,0.00115534,-0.00044546,-0.00085300,-0.00002152,0.00
 013765,-0.00025409,-0.00099426,0.00014965,-0.00030721,-0.00015386,0.00
 028598,0.00023259,-0.00004077,0.00147257,0.00664589,-0.00646126,0.0135
 4721,0.00061982,-0.00089081,-0.00041372,-0.02914498,-0.12697486,0.1193
 1926,-0.00224866,0.02014875,-0.00935217,-0.00459073,-0.01194409,0.0215
 2762,0.00430811,-0.00271745,-0.00557566,0.00125567,-0.00617674,0.00294
 953,0.00025900,0.00262442,-0.00365527,-0.00040433,0.00032637,0.0002262
 7,-0.00005473,-0.00047795,-0.00069708,-0.00005438,-0.00035243,0.000098
 36,0.00005581,0.00002499,-0.00005774,0.00005583,0.00001438,-0.00000865
 ,0.00021158,-0.00007511,0.00005048,0.00016166,0.00028413,0.00002910,-0
 .00000974,0.00005691,0.00007712,-0.00004017,-0.00001492,0.00001539,0.0
 0004491,-0.00008325,0.00006453,0.00013372,-0.00010919,0.00003045,-0.00
 017446,0.00007803,0.00008061,-0.00011172,-0.00005870,-0.00005740,-0.00
 043307,-0.00020808,-0.00009545,0.00013143,0.00012847,-0.00034271,-0.00
 093284,0.00057388,-0.00040702,0.00158469,-0.00028652,0.00035421,-0.000
 10283,-0.00012143,0.00006931,0.02716557,0.13531549,0.00008620,0.000310
 26,0.00071163,0.00001993,0.00087591,0.00031121,-0.00148404,-0.00232168
 ,-0.00138561,-0.00093359,-0.00033544,-0.00038576,-0.00089910,-0.000102
 18,0.00132023,0.00245110,0.00713081,-0.00685800,0.00068626,-0.00082492
 ,-0.00131514,0.03537230,0.11835674,-0.25053614,-0.00454025,0.01892389,
 -0.00753271,0.00296311,-0.00122845,0.01140938,0.00439971,-0.00259214,-
 0.00424100,0.00043150,-0.00577919,0.00186025,0.00233624,0.00397752,-0.
 00038035,0.00000421,-0.00017811,-0.00010978,-0.00013881,-0.00047091,-0
 .00023303,0.00020668,-0.00009020,-0.00013845,-0.00004084,0.00001432,-0
 .00002260,0.00000521,-0.00034217,-0.00004395,0.00002607,-0.00010669,0.
 00009490,0.00026109,0.00042293,0.00003376,0.00011825,0.00051161,0.0004
 3875,0.00037220,0.00020844,0.00020755,0.00033357,-0.00006930,-0.000014
 02,-0.00008343,-0.00017878,0.00020680,-0.00022578,0.00005282,-0.000074
 60,0.00007123,-0.00019467,-0.00050054,0.00027907,0.00005738,0.00018315
 ,-0.00012674,0.00007693,-0.00024516,0.00119866,-0.00035503,0.00157843,
 -0.00218362,0.00047999,0.00029158,-0.00041692,0.00008521,-0.00007456,-
 0.03693693,-0.13678959,0.25633286,0.00009640,0.00028997,-0.00003328,-0
 .00036602,0.00004437,-0.00000177,-0.00169666,-0.00264662,-0.00148247,-
 0.00104290,-0.00037186,-0.00026293,-0.00051556,-0.00076733,0.00165877,
 0.00347487,-0.00193050,0.00000916,-0.00104890,-0.00008731,0.00008331,0
 .00730521,-0.01714041,-0.01895725,-0.00589035,0.00086263,0.00428663,-0
 .09807708,0.07417654,0.07288013,0.00150940,0.00034216,-0.00074830,0.00
 236706,-0.00787416,-0.00026683,0.00222693,0.00542426,-0.00061577,-0.00
 003170,-0.00000195,-0.00000635,0.00009038,0.00011030,-0.00006389,-0.00
 010770,-0.00001822,0.00000688,-0.00004523,-0.00001767,-0.00001779,-0.0
 0003367,-0.00001629,0.00001138,0.00005339,-0.00005335,0.00001740,0.000
 30345,0.00047772,0.00003380,0.00013026,0.00055664,0.00047823,0.0004027
 2,0.00022551,0.00021903,0.00035297,-0.00012117,-0.00002193,-0.00003829
 ,-0.00020908,0.00019904,-0.00024171,0.00006091,-0.00004543,0.00000714,
 -0.00013737,-0.00021185,-0.00003584,0.00005969,-0.00021427,0.00003944,
 0.00025118,-0.00057985,-0.00116672,-0.00002624,0.00076097,0.00000879,0
 .00004359,-0.00072409,0.00034940,0.00023013,0.00020195,-0.00061223,-0.
 00037578,0.00074068,0.09303339,-0.00075065,-0.00003680,0.00002820,-0.0
 0073994,-0.00036582,-0.00024998,-0.00161949,-0.00148266,-0.00040342,-0
 .00033366,0.00039657,0.00109274,-0.00032104,0.00004646,0.00390192,-0.0
 0285096,-0.00246071,-0.00175963,0.00143606,0.00178331,0.00109673,0.011
 14170,-0.00949680,-0.01363248,-0.00458122,0.00369594,-0.00174230,0.064
 90333,-0.20173120,-0.09067779,0.00032215,-0.00157572,0.00173788,0.0013
 5095,-0.00653567,0.00106553,0.00139915,0.00275393,-0.00379159,0.000015
 00,0.00002072,-0.00004117,0.00019631,0.00002118,-0.00006701,0.00005983
 ,-0.00013228,0.00004647,0.00004629,0.00004675,-0.00002966,-0.00008513,
 0.00005083,0.00004720,0.00010329,-0.00007494,0.00010600,0.00021667,0.0
 0045098,0.00006289,0.00010126,0.00028715,0.00013874,0.00042916,0.00018
 499,0.00023802,-0.00011780,-0.00017478,-0.00007016,0.00018112,-0.00012
 860,-0.00012900,-0.00009738,0.00002717,0.00003570,0.00013616,-0.000294
 86,-0.00091350,-0.00020481,0.00013298,-0.00064810,0.00004845,0.0001954
 0,-0.00065189,-0.00018508,0.00031635,0.00000365,0.00051755,0.00017928,
 0.00036180,-0.00006310,0.00000702,-0.00005098,-0.00015062,0.00018904,0
 .00084695,-0.06600177,0.20350752,-0.00081589,0.00052378,-0.00010856,-0
 .00138949,0.00049609,0.00021466,-0.00439547,-0.00635685,-0.00296591,-0
 .00229898,-0.00032566,0.00009399,-0.00131763,-0.00116105,0.00694305,0.
 00064308,-0.00201276,0.00222746,0.00181529,-0.00020288,-0.00015604,-0.
 00171620,-0.00304961,-0.00547601,-0.00366556,0.01393138,0.00195958,0.0
 5711134,-0.05968041,-0.10408101,-0.00054795,-0.00643703,-0.00007492,0.
 00357715,-0.01822101,0.00219987,0.00481340,0.01215042,-0.00486181,0.00
 000034,0.00010366,-0.00010530,0.00027106,0.00010586,-0.00019363,-0.000
 12772,-0.00023894,0.00004355,0.00009817,0.00005569,-0.00008454,-0.0000
 2207,-0.00027409,-0.00002426,0.00025245,-0.00016718,0.00018125,0.00077
 835,0.00133801,0.00011762,0.00035420,0.00129737,0.00100858,0.00106531,
 0.00055735,0.00059246,0.00055974,-0.00034672,-0.00003564,0.00004256,-0
 .00047577,0.00035257,-0.00053155,0.00014534,-0.00002198,0.00017740,-0.
 00060093,-0.00142712,-0.00018788,0.00026859,-0.00100181,0.00003141,0.0
 0064600,-0.00164847,-0.00000203,0.00001080,-0.00037671,0.00019831,-0.0
 0000844,-0.00037876,-0.00007465,-0.00007648,0.00001966,-0.00139172,-0.
 00087002,0.00001704,-0.06425581,0.09726986,0.11626130,-0.00118794,-0.0
 0016642,-0.00022132,-0.00080917,-0.00007208,0.00011516,-0.00593281,-0.
 00621158,-0.00202411,-0.00181918,0.00077367,0.00246667,-0.00151928,-0.
 00002980,0.01374764,-0.00125558,-0.00364395,-0.00249504,0.00046604,0.0
 0093915,0.00003072,-0.00855595,-0.00570500,0.02570226,-0.00075301,0.02
 365198,-0.00570548,-0.05711064,-0.08945110,0.19017953,-0.00351442,-0.0
 0830617,0.00240364,0.00402091,-0.02096114,0.00551654,0.00563806,0.0116
 3538,-0.01193313,0.00025858,-0.00000519,-0.00025523,0.00002704,0.00027
 623,0.00005954,-0.00014642,-0.00008407,-0.00005630,0.00002741,0.000095
 21,-0.00005307,-0.00025094,-0.00020653,-0.00004072,0.00023484,-0.00014
 971,0.00018918,0.00086322,0.00169620,0.00020863,0.00042050,0.00116347,
 0.00066911,0.00150891,0.00070138,0.00085273,-0.00011704,-0.00058098,-0
 .00013402,0.00044042,-0.00040520,-0.00012664,-0.00047274,0.00017492,0.
 00021115,0.00049185,-0.00119570,-0.00341614,-0.00043278,0.00056066,-0.
 00215192,-0.00008688,0.00082487,-0.00245194,0.00078730,0.00005709,-0.0
 0008781,-0.00036555,0.00055761,-0.00002447,0.00003591,-0.00003210,0.00
 001700,-0.00056443,-0.00251252,-0.00435320,-0.00080067,-0.00450179,0.0
 1095104,0.07047444,-0.00016456,0.00010238,-0.00007487,-0.00024002,-0.0
 0000673,-0.00014641,0.00111468,0.00157573,0.00085145,0.00043961,0.0003
 6423,0.00000512,0.00033896,0.00034266,-0.00144171,-0.00242734,-0.00079
 065,-0.00065468,0.00061084,0.00039629,0.00079625,-0.00395318,-0.005819
 34,0.02078228,-0.00267745,-0.01196974,0.00626163,-0.10456420,-0.113149
 15,0.21391374,0.00287042,0.00478493,-0.00077729,-0.00147282,0.00772574
 ,-0.00168136,-0.00111096,-0.00455718,0.00098322,0.00001023,0.00004425,
 -0.00000294,0.00002159,-0.00005103,0.00000433,0.00004572,-0.00006758,0
 .00003748,0.00001664,-0.00001866,-0.00000206,0.00004436,0.00005514,0.0
 0002578,-0.00002966,0.00000081,0.00000223,-0.00016154,-0.00029336,-0.0
 0005976,-0.00007710,-0.00032842,-0.00023501,-0.00028858,-0.00012354,-0
 .00014605,-0.00017764,0.00008288,0.00000575,-0.00001710,0.00011800,-0.
 00006737,0.00020970,-0.00006735,-0.00001218,-0.00001576,0.00014629,0.0
 0026370,-0.00003076,-0.00001400,0.00012061,0.00003822,-0.00012139,0.00
 037234,-0.00014554,-0.00006594,0.00008754,0.00062957,0.00012060,0.0001
 9282,-0.00000402,0.00001221,-0.00009066,-0.00458698,-0.00275698,-0.000
 37223,0.01464148,0.01019726,-0.02839437,0.10111322,0.11413166,0.000733
 20,-0.00015333,0.00011374,0.00091654,0.00040566,0.00014766,0.00289181,
 0.00394501,0.00096664,0.00102162,-0.00009084,-0.00122808,0.00072381,0.
 00027341,-0.00741174,0.00120779,0.00268282,0.00061657,-0.00112353,-0.0
 0144715,-0.00079930,-0.00463734,-0.00721034,0.01415374,-0.00108311,-0.
 02433946,0.00822256,0.21536147,0.21337086,-0.51709448,0.00358298,0.008
 71134,-0.00510698,-0.00390004,0.01923076,-0.00596863,-0.00214697,-0.00
 898340,0.00779661,0.00002674,-0.00008041,-0.00003380,-0.00026820,-0.00
 004662,0.00016978,0.00001532,0.00022251,-0.00010018,-0.00005842,-0.000
 04146,0.00002348,0.00011929,-0.00002886,-0.00001231,-0.00020774,0.0001
 3466,-0.00012561,-0.00053947,-0.00103279,-0.00012615,-0.00020221,-0.00
 064442,-0.00042087,-0.00065032,-0.00028255,-0.00038962,-0.00007125,0.0
 0031903,0.00001434,-0.00029220,0.00033603,0.00000925,0.00039690,-0.000
 13463,-0.00009519,-0.00023994,0.00059270,0.00161948,0.00031876,-0.0002
 6849,0.00113641,-0.00002860,-0.00042809,0.00129588,0.00023467,-0.00001
 750,0.00002600,-0.00094325,0.00054337,-0.00022836,-0.00002424,-0.00005
 148,-0.00010161,-0.00026656,-0.00171737,-0.00090612,0.00692249,0.00677
 835,-0.00921015,-0.21778998,-0.21054732,0.51304705\\-0.03247445,0.0279
 9911,-0.02326248,-0.05171777,-0.05261285,0.00233671,0.00116710,0.00248
 131,-0.00513756,-0.01817019,0.02706767,0.03824030,0.00731666,-0.020387
 04,0.04463329,-0.01683489,0.00505805,0.03865831,0.01382894,-0.01025257
 ,-0.05084745,-0.02054779,-0.02242982,0.00238832,-0.00541995,0.04193743
 ,0.01506535,0.10103049,-0.01756796,-0.08366922,0.00698606,-0.00019839,
 -0.01171824,0.02572360,-0.06639320,0.01339985,-0.00193206,0.06836538,-
 0.01369623,0.01148128,0.00536164,-0.01426046,0.01791397,-0.00265233,0.
 00231771,-0.00097998,-0.00126704,0.00116841,0.00701235,-0.00122445,0.0
 0880513,0.03093406,0.03208242,0.01287095,0.01921200,-0.00757286,-0.014
 82231,-0.00883372,-0.00819248,-0.02201387,-0.01090393,0.00063505,0.004
 30458,0.00940245,-0.01913806,-0.00721934,0.01389985,-0.03218622,-0.039
 88903,-0.00585413,0.00885352,-0.01054862,0.00299679,-0.01491333,0.0027
 9149,0.00509075,0.02014225,-0.01295107,-0.00822645,0.01392255,0.000751
 84,-0.00072878,-0.00396463,0.00667920,0.00720108,-0.00589589,-0.034422
 41,-0.00094149,-0.00015069,0.00738218,-0.02405681,0.01208510,0.0723321
 5,-0.00720494,0.00680019,-0.00231128,-0.02633944,0.03401168,-0.0003048
 7,-0.04003066,-0.01980354,0.07294868\\\@


 UNLESS WE CHANGE DIRECTIONS, WE WILL WIND UP WHERE WE ARE HEADED.
     -- CONFUCIUS
 Job cpu time:       0 days  3 hours 39 minutes 34.6 seconds.
 Elapsed time:       0 days  0 hours 27 minutes 27.4 seconds.
 File lengths (MBytes):  RWF=    635 Int=      0 D2E=      0 Chk=     10 Scr=      1
 Normal termination of Gaussian 16 at Wed Feb 24 21:50:01 2021.
