 Entering Gaussian System, Link 0=g16
 Input=trj494hp.com
 Output=trj494hp.log
 Initial command:
 /share/apps/g16/l1.exe "/scratch/Gau-31079.inp" -scrdir="/scratch/"
 Entering Link 1 = /share/apps/g16/l1.exe PID=     31083.
  
 Copyright (c) 1988,1990,1992,1993,1995,1998,2003,2009,2016,
            Gaussian, Inc.  All Rights Reserved.
  
 This is part of the Gaussian(R) 16 program.  It is based on
 the Gaussian(R) 09 system (copyright 2009, Gaussian, Inc.),
 the Gaussian(R) 03 system (copyright 2003, Gaussian, Inc.),
 the Gaussian(R) 98 system (copyright 1998, Gaussian, Inc.),
 the Gaussian(R) 94 system (copyright 1995, Gaussian, Inc.),
 the Gaussian 92(TM) system (copyright 1992, Gaussian, Inc.),
 the Gaussian 90(TM) system (copyright 1990, Gaussian, Inc.),
 the Gaussian 88(TM) system (copyright 1988, Gaussian, Inc.),
 the Gaussian 86(TM) system (copyright 1986, Carnegie Mellon
 University), and the Gaussian 82(TM) system (copyright 1983,
 Carnegie Mellon University). Gaussian is a federally registered
 trademark of Gaussian, Inc.
  
 This software contains proprietary and confidential information,
 including trade secrets, belonging to Gaussian, Inc.
  
 This software is provided under written license and may be
 used, copied, transmitted, or stored only in accord with that
 written license.
  
 The following legend is applicable only to US Government
 contracts under FAR:
  
                    RESTRICTED RIGHTS LEGEND
  
 Use, reproduction and disclosure by the US Government is
 subject to restrictions as set forth in subparagraphs (a)
 and (c) of the Commercial Computer Software - Restricted
 Rights clause in FAR 52.227-19.
  
 Gaussian, Inc.
 340 Quinnipiac St., Bldg. 40, Wallingford CT 06492
  
  
 ---------------------------------------------------------------
 Warning -- This program may not be used in any manner that
 competes with the business of Gaussian, Inc. or will provide
 assistance to any competitor of Gaussian, Inc.  The licensee
 of this program is prohibited from giving any competitor of
 Gaussian, Inc. access to this program.  By using this program,
 the user acknowledges that Gaussian, Inc. is engaged in the
 business of creating and licensing software in the field of
 computational chemistry and represents and warrants to the
 licensee that it is not a competitor of Gaussian, Inc. and that
 it will not use this program in any manner prohibited above.
 ---------------------------------------------------------------
  

 Cite this work as:
 Gaussian 16, Revision A.03,
 M. J. Frisch, G. W. Trucks, H. B. Schlegel, G. E. Scuseria, 
 M. A. Robb, J. R. Cheeseman, G. Scalmani, V. Barone, 
 G. A. Petersson, H. Nakatsuji, X. Li, M. Caricato, A. V. Marenich, 
 J. Bloino, B. G. Janesko, R. Gomperts, B. Mennucci, H. P. Hratchian, 
 J. V. Ortiz, A. F. Izmaylov, J. L. Sonnenberg, D. Williams-Young, 
 F. Ding, F. Lipparini, F. Egidi, J. Goings, B. Peng, A. Petrone, 
 T. Henderson, D. Ranasinghe, V. G. Zakrzewski, J. Gao, N. Rega, 
 G. Zheng, W. Liang, M. Hada, M. Ehara, K. Toyota, R. Fukuda, 
 J. Hasegawa, M. Ishida, T. Nakajima, Y. Honda, O. Kitao, H. Nakai, 
 T. Vreven, K. Throssell, J. A. Montgomery, Jr., J. E. Peralta, 
 F. Ogliaro, M. J. Bearpark, J. J. Heyd, E. N. Brothers, K. N. Kudin, 
 V. N. Staroverov, T. A. Keith, R. Kobayashi, J. Normand, 
 K. Raghavachari, A. P. Rendell, J. C. Burant, S. S. Iyengar, 
 J. Tomasi, M. Cossi, J. M. Millam, M. Klene, C. Adamo, R. Cammi, 
 J. W. Ochterski, R. L. Martin, K. Morokuma, O. Farkas, 
 J. B. Foresman, and D. J. Fox, Gaussian, Inc., Wallingford CT, 2016.
 
 ******************************************
 Gaussian 16:  ES64L-G16RevA.03 25-Dec-2016
                24-Feb-2021 
 ******************************************
 %nprocshared=8
 Will use up to    8 processors via shared memory.
 %mem=4000MB
 %chk=305_73scan.chk
 ---------------------------------------------------------
 # freq=hpmodes em=gd3bj int=ultrafine pbe1pbe scf=xqc svp
 ---------------------------------------------------------
 1/10=4,30=1,38=1/1,3;
 2/12=2,17=6,18=5,40=1/2;
 3/5=18,7=101,11=2,25=1,30=1,71=2,74=-13,75=-5,124=41,140=1/1,2,3;
 4//1;
 5/5=2,8=3,13=1,38=5,98=1/2,8;
 8/6=4,10=90,11=11/1;
 11/6=1,8=1,9=11,15=111,16=1/1,2,10;
 10/6=1/2;
 6/7=2,8=2,9=2,10=2,28=1/1;
 7/8=11,10=1,25=1/1,2,3,16;
 1/10=4,30=1/3;
 99//99;
 -------------------
 Title Card Required
 -------------------
 Symbolic Z-matrix:
 Charge =  1 Multiplicity = 1
 C                    -1.18891   7.54666  -0.31233 
 C                    -2.40542   9.49608  -1.22317 
 C                    -0.09463   9.8071   -0.41066 
 C                    -1.07033   8.80365  -1.06371 
 C                     1.35669   9.18027  -0.10195 
 C                     2.03156   8.4904   -1.28469 
 N                     2.3323    10.23986   0.11772 
 O                     2.22336   7.17951  -1.13767 
 H                    -1.19493   7.81926   0.74063 
 H                    -0.23585   6.94541  -0.40888 
 H                    -2.05309   6.91615  -0.55904 
 H                    -2.72967   9.89393  -0.24509 
 H                    -3.12174   8.95313  -1.74908 
 H                    -2.09312   10.27998  -1.96155 
 H                    -0.51856   10.25542   0.44848 
 H                     0.07021   10.65155  -1.08962 
 H                    -0.66335   8.57738  -1.96258 
 H                     1.17957   8.60019   0.81088 
 H                     1.88669   11.0902   0.61791 
 H                     2.66072   10.59793  -0.70033 
 

 GradGradGradGradGradGradGradGradGradGradGradGradGradGradGradGradGradGrad
 Berny optimization.
 Initialization pass.
 Trust Radius=3.00D-01 FncErr=1.00D-07 GrdErr=1.00D-07 EigMax=2.50D+02 EigMin=1.00D-04
 Number of steps in this run=      2 maximum allowed number of steps=      2.
 GradGradGradGradGradGradGradGradGradGradGradGradGradGradGradGradGradGrad

                          Input orientation:                          
 ---------------------------------------------------------------------
 Center     Atomic      Atomic             Coordinates (Angstroms)
 Number     Number       Type             X           Y           Z
 ---------------------------------------------------------------------
      1          6           0       -1.188908    7.546663   -0.312326
      2          6           0       -2.405419    9.496078   -1.223166
      3          6           0       -0.094627    9.807101   -0.410662
      4          6           0       -1.070333    8.803649   -1.063714
      5          6           0        1.356688    9.180273   -0.101947
      6          6           0        2.031561    8.490398   -1.284691
      7          7           0        2.332296   10.239857    0.117718
      8          8           0        2.223355    7.179508   -1.137668
      9          1           0       -1.194926    7.819262    0.740625
     10          1           0       -0.235846    6.945411   -0.408878
     11          1           0       -2.053091    6.916148   -0.559038
     12          1           0       -2.729666    9.893926   -0.245093
     13          1           0       -3.121742    8.953127   -1.749081
     14          1           0       -2.093123   10.279983   -1.961548
     15          1           0       -0.518564   10.255422    0.448479
     16          1           0        0.070205   10.651552   -1.089615
     17          1           0       -0.663350    8.577379   -1.962583
     18          1           0        1.179570    8.600190    0.810883
     19          1           0        1.886692   11.090199    0.617906
     20          1           0        2.660722   10.597933   -0.700332
 ---------------------------------------------------------------------
                    Distance matrix (angstroms):
                    1          2          3          4          5
     1  C    0.000000
     2  C    2.471790   0.000000
     3  C    2.513305   2.469141   0.000000
     4  C    1.469237   1.512395   1.544472   0.000000
     5  C    3.031996   3.938314   1.610756   2.637664   0.000000
     6  C    3.493930   4.549942   2.649209   3.125493   1.526520
     7  N    4.453887   4.979671   2.521194   3.877674   1.456977
     8  O    3.529806   5.176809   3.578522   3.673103   2.413895
     9  H    1.087682   2.851926   2.547081   2.059170   3.012144
    10  H    1.130997   3.446159   2.865173   2.139679   2.761337
    11  H    1.097829   2.687236   3.495026   2.187046   4.118469
    12  H    2.808576   1.104557   2.641663   2.147610   4.150672
    13  H    2.788952   1.041394   3.418196   2.168029   4.777131
    14  H    3.317917   1.121269   2.573490   2.007926   4.070464
    15  H    2.892328   2.632721   1.057751   2.167677   2.230579
    16  H    3.439459   2.735264   1.096013   2.171691   2.189792
    17  H    2.015424   2.103699   2.060126   1.012323   2.811761
    18  H    2.825103   4.218070   2.138313   2.935570   1.095959
    19  H    4.783440   4.934874   2.574863   4.098799   2.108770
    20  H    4.927519   5.210876   2.881193   4.155992   2.017010
                    6          7          8          9         10
     6  C    0.000000
     7  N    2.262255   0.000000
     8  O    1.332979   3.309622   0.000000
     9  H    3.868145   4.323030   3.952457   0.000000
    10  H    2.880133   4.210229   2.575579   1.733438   0.000000
    11  H    4.437253   5.544065   4.323443   1.800329   1.823673
    12  H    5.071483   5.086724   5.718144   2.762480   3.865191
    13  H    5.194835   5.906534   5.664769   3.346178   3.762375
    14  H    4.546842   4.889713   5.378076   3.763462   4.120635
    15  H    3.552791   2.870026   4.415340   2.545131   3.430913
    16  H    2.924989   2.596960   4.085762   3.601694   3.780549
    17  H    2.780225   4.008164   3.311736   2.857385   2.293486
    18  H    2.264812   2.120793   2.627675   2.500603   2.495899
    19  H    3.224876   1.082512   4.299870   4.495604   4.768513
    20  H    2.275747   0.951466   3.473929   4.966225   4.670757
                   11         12         13         14         15
    11  H    0.000000
    12  H    3.069768   0.000000
    13  H    2.589884   1.816812   0.000000
    14  H    3.644725   1.870948   1.692261   0.000000
    15  H    3.810592   2.345356   3.647160   2.878901   0.000000
    16  H    4.329335   3.021008   3.675332   2.361846   1.693901
    17  H    2.580893   2.992111   2.496089   2.223311   2.941090
    18  H    3.893941   4.250996   5.017894   4.606365   2.398914
    19  H    5.859163   4.846297   5.937518   4.811337   2.551630
    20  H    5.982937   5.455195   6.102635   4.928570   3.397785
                   16         17         18         19         20
    16  H    0.000000
    17  H    2.366933   0.000000
    18  H    3.008433   3.330013   0.000000
    19  H    2.531336   4.413151   2.595651   0.000000
    20  H    2.620152   4.089666   2.910079   1.605989   0.000000
 Stoichiometry    C6H12NO(1+)
 Framework group  C1[X(C6H12NO)]
 Deg. of freedom    54
 Full point group                 C1      NOp   1
 Largest Abelian subgroup         C1      NOp   1
 Largest concise Abelian subgroup C1      NOp   1
                         Standard orientation:                         
 ---------------------------------------------------------------------
 Center     Atomic      Atomic             Coordinates (Angstroms)
 Number     Number       Type             X           Y           Z
 ---------------------------------------------------------------------
      1          6           0        1.445405    1.211111    0.752910
      2          6           0        2.754064   -0.511211   -0.443236
      3          6           0        0.379546   -0.958526    0.064930
      4          6           0        1.405526    0.148863   -0.261336
      5          6           0       -1.098226   -0.393230    0.366863
      6          6           0       -1.664130    0.546230   -0.694943
      7          7           0       -2.083291   -1.461391    0.259813
      8          8           0       -1.877182    1.796574   -0.284963
      9          1           0        1.354840    0.716521    1.717395
     10          1           0        0.501697    1.832347    0.701576
     11          1           0        2.324800    1.867902    0.730133
     12          1           0        2.988122   -1.116291    0.450710
     13          1           0        3.512872    0.122762   -0.770024
     14          1           0        2.517078   -1.111787   -1.359964
     15          1           0        0.724282   -1.588475    0.841563
     16          1           0        0.284216   -1.633169   -0.793565
     17          1           0        1.082798    0.570450   -1.123257
     18          1           0       -1.010808   -0.027542    1.396308
     19          1           0       -1.680905   -2.406180    0.602293
     20          1           0       -2.331619   -1.628813   -0.643287
 ---------------------------------------------------------------------
 Rotational constants (GHZ):           2.8996669           1.3167999           1.0211012
 Standard basis: SVP (5D, 7F)
 There are   180 symmetry adapted cartesian basis functions of A   symmetry.
 There are   172 symmetry adapted basis functions of A   symmetry.
   172 basis functions,   284 primitive gaussians,   180 cartesian basis functions
    31 alpha electrons       31 beta electrons
       nuclear repulsion energy       380.0083958997 Hartrees.
 NAtoms=   20 NActive=   20 NUniq=   20 SFac= 1.00D+00 NAtFMM=   60 NAOKFM=F Big=F
 Integral buffers will be    131072 words long.
 Raffenetti 2 integral format.
 Two-electron integral symmetry is turned on.
 Nuclear repulsion after empirical dispersion term =      379.9926834293 Hartrees.
 One-electron integrals computed using PRISM.
 NBasis=   172 RedAO= T EigKep=  1.18D-03  NBF=   172
 NBsUse=   172 1.00D-06 EigRej= -1.00D+00 NBFU=   172
 ExpMin= 1.22D-01 ExpMax= 2.27D+03 ExpMxC= 3.41D+02 IAcc=3 IRadAn=         5 AccDes= 0.00D+00
 Harris functional with IExCor= 1009 and IRadAn=       5 diagonalized for initial guess.
 HarFok:  IExCor= 1009 AccDes= 0.00D+00 IRadAn=         5 IDoV= 1 UseB2=F ITyADJ=14
 ICtDFT=  3500011 ScaDFX=  1.000000  1.000000  1.000000  1.000000
 FoFCou: FMM=F IPFlag=           0 FMFlag=      100000 FMFlg1=           0
         NFxFlg=           0 DoJE=T BraDBF=F KetDBF=T FulRan=T
         wScrn=  0.000000 ICntrl=       500 IOpCl=  0 I1Cent=   200000004 NGrid=           0
         NMat0=    1 NMatS0=      1 NMatT0=    0 NMatD0=    1 NMtDS0=    0 NMtDT0=    0
 Petite list used in FoFCou.
 Requested convergence on RMS density matrix=1.00D-08 within  32 cycles.
 Requested convergence on MAX density matrix=1.00D-06.
 Requested convergence on             energy=1.00D-06.
 No special actions if energy rises.
 Integral accuracy reduced to 1.0D-05 until final iterations.
 EnCoef did     2 forward-backward iterations
 EnCoef did   100 forward-backward iterations
 Problem detected with inexpensive integrals.
 Switching to full accuracy and repeating last cycle.
 EnCoef did     4 forward-backward iterations
 EnCoef did     2 forward-backward iterations
 EnCoef did     3 forward-backward iterations
 EnCoef did     3 forward-backward iterations
 EnCoef did     3 forward-backward iterations
 Restarting incremental Fock formation.
 SCF Done:  E(RPBE1PBE) =  -364.666848857     A.U. after   25 cycles
            NFock= 25  Conv=0.40D-08     -V/T= 2.0101
 QCSCF skips out because SCF is already converged.
 DoSCS=F DFT=T ScalE2(SS,OS)=  1.000000  1.000000
 Range of M.O.s used for correlation:     1   172
 NBasis=   172 NAE=    31 NBE=    31 NFC=     0 NFV=     0
 NROrb=    172 NOA=    31 NOB=    31 NVA=   141 NVB=   141

 **** Warning!!: The smallest alpha delta epsilon is  0.50541056D-01

 Symmetrizing basis deriv contribution to polar:
 IMax=3 JMax=2 DiffMx= 0.00D+00
 G2DrvN: will do    21 centers at a time, making    1 passes.
 Calling FoFCou, ICntrl=  3107 FMM=F I1Cent=   0 AccDes= 0.00D+00.
 End of G2Drv F.D. properties file   721 does not exist.
 End of G2Drv F.D. properties file   722 does not exist.
 End of G2Drv F.D. properties file   788 does not exist.
          IDoAtm=11111111111111111111
          Differentiating once with respect to electric field.
                with respect to dipole field.
          Differentiating once with respect to nuclear coordinates.
 Keep R1 ints in memory in canonical form, NReq=118749515.
          There are    63 degrees of freedom in the 1st order CPHF.  IDoFFX=6 NUNeed=     3.
     60 vectors produced by pass  0 Test12= 6.94D-15 1.59D-09 XBig12= 5.70D+02 1.91D+01.
 AX will form    60 AO Fock derivatives at one time.
     60 vectors produced by pass  1 Test12= 6.94D-15 1.59D-09 XBig12= 1.89D+02 3.57D+00.
     60 vectors produced by pass  2 Test12= 6.94D-15 1.59D-09 XBig12= 5.72D+00 3.45D-01.
     60 vectors produced by pass  3 Test12= 6.94D-15 1.59D-09 XBig12= 1.98D-02 2.31D-02.
     60 vectors produced by pass  4 Test12= 6.94D-15 1.59D-09 XBig12= 2.56D-05 4.33D-04.
     36 vectors produced by pass  5 Test12= 6.94D-15 1.59D-09 XBig12= 2.50D-08 1.42D-05.
      7 vectors produced by pass  6 Test12= 6.94D-15 1.59D-09 XBig12= 1.84D-11 3.77D-07.
      3 vectors produced by pass  7 Test12= 6.94D-15 1.59D-09 XBig12= 1.53D-14 1.19D-08.
 InvSVY:  IOpt=1 It=  1 EMax= 1.07D-14
 Solved reduced A of dimension   346 with    63 vectors.
 Isotropic polarizability for W=    0.000000       95.90 Bohr**3.
 End of Minotr F.D. properties file   721 does not exist.
 End of Minotr F.D. properties file   722 does not exist.
 End of Minotr F.D. properties file   788 does not exist.

 **********************************************************************

            Population analysis using the SCF density.

 **********************************************************************

 Orbital symmetries:
       Occupied  (A) (A) (A) (A) (A) (A) (A) (A) (A) (A) (A) (A)
                 (A) (A) (A) (A) (A) (A) (A) (A) (A) (A) (A) (A)
                 (A) (A) (A) (A) (A) (A) (A)
       Virtual   (A) (A) (A) (A) (A) (A) (A) (A) (A) (A) (A) (A)
                 (A) (A) (A) (A) (A) (A) (A) (A) (A) (A) (A) (A)
                 (A) (A) (A) (A) (A) (A) (A) (A) (A) (A) (A) (A)
                 (A) (A) (A) (A) (A) (A) (A) (A) (A) (A) (A) (A)
                 (A) (A) (A) (A) (A) (A) (A) (A) (A) (A) (A) (A)
                 (A) (A) (A) (A) (A) (A) (A) (A) (A) (A) (A) (A)
                 (A) (A) (A) (A) (A) (A) (A) (A) (A) (A) (A) (A)
                 (A) (A) (A) (A) (A) (A) (A) (A) (A) (A) (A) (A)
                 (A) (A) (A) (A) (A) (A) (A) (A) (A) (A) (A) (A)
                 (A) (A) (A) (A) (A) (A) (A) (A) (A) (A) (A) (A)
                 (A) (A) (A) (A) (A) (A) (A) (A) (A) (A) (A) (A)
                 (A) (A) (A) (A) (A) (A) (A) (A) (A)
 The electronic state is 1-A.
 Alpha  occ. eigenvalues --  -19.55393 -14.61067 -10.64254 -10.54050 -10.44002
 Alpha  occ. eigenvalues --  -10.40190 -10.37796 -10.36813  -1.30608  -1.15297
 Alpha  occ. eigenvalues --   -1.02130  -0.95489  -0.88708  -0.85868  -0.81018
 Alpha  occ. eigenvalues --   -0.75304  -0.74083  -0.70635  -0.69497  -0.66124
 Alpha  occ. eigenvalues --   -0.64699  -0.63246  -0.61481  -0.60446  -0.58619
 Alpha  occ. eigenvalues --   -0.55837  -0.55022  -0.52765  -0.50186  -0.48609
 Alpha  occ. eigenvalues --   -0.46326
 Alpha virt. eigenvalues --   -0.41272  -0.31397  -0.10906  -0.08848  -0.08073
 Alpha virt. eigenvalues --   -0.06353  -0.04474  -0.02387  -0.02285  -0.01105
 Alpha virt. eigenvalues --   -0.00395   0.00493   0.01555   0.01960   0.03749
 Alpha virt. eigenvalues --    0.04156   0.05254   0.07715   0.09884   0.10288
 Alpha virt. eigenvalues --    0.11143   0.21328   0.24778   0.26885   0.27690
 Alpha virt. eigenvalues --    0.28840   0.29752   0.31503   0.32910   0.33476
 Alpha virt. eigenvalues --    0.37383   0.38612   0.41189   0.42949   0.45906
 Alpha virt. eigenvalues --    0.46602   0.47657   0.48366   0.49032   0.51114
 Alpha virt. eigenvalues --    0.52597   0.52911   0.54643   0.55631   0.56714
 Alpha virt. eigenvalues --    0.57256   0.57938   0.58829   0.59464   0.60308
 Alpha virt. eigenvalues --    0.62400   0.63938   0.66584   0.69162   0.71060
 Alpha virt. eigenvalues --    0.72240   0.75742   0.83071   0.86736   0.88573
 Alpha virt. eigenvalues --    0.90341   0.93568   0.95633   0.99361   1.01126
 Alpha virt. eigenvalues --    1.05633   1.08481   1.12926   1.17202   1.19807
 Alpha virt. eigenvalues --    1.23621   1.28274   1.32694   1.37549   1.38278
 Alpha virt. eigenvalues --    1.40820   1.44002   1.44996   1.46815   1.49927
 Alpha virt. eigenvalues --    1.53173   1.55351   1.58503   1.59272   1.61914
 Alpha virt. eigenvalues --    1.62741   1.63078   1.65525   1.68087   1.69068
 Alpha virt. eigenvalues --    1.69329   1.71427   1.71755   1.73526   1.75000
 Alpha virt. eigenvalues --    1.77022   1.79646   1.80450   1.83692   1.84500
 Alpha virt. eigenvalues --    1.87560   1.88022   1.90411   1.97156   1.99932
 Alpha virt. eigenvalues --    2.02022   2.06071   2.08611   2.13831   2.16398
 Alpha virt. eigenvalues --    2.18372   2.19646   2.25056   2.26518   2.29242
 Alpha virt. eigenvalues --    2.33376   2.37743   2.38735   2.42273   2.45361
 Alpha virt. eigenvalues --    2.45926   2.51598   2.53761   2.57151   2.59914
 Alpha virt. eigenvalues --    2.63924   2.68415   2.70985   2.71471   2.74225
 Alpha virt. eigenvalues --    2.77702   2.78783   2.82877   2.84922   2.87156
 Alpha virt. eigenvalues --    2.94568   2.98390   3.00117   3.09052   3.17455
 Alpha virt. eigenvalues --    3.25275
          Condensed to atoms (all electrons):
               1          2          3          4          5          6
     1  C    4.672046  -0.062899  -0.077638   0.360670   0.007089  -0.009920
     2  C   -0.062899   4.540102  -0.043212   0.373965   0.009219   0.000387
     3  C   -0.077638  -0.043212   5.065743   0.266975   0.200651  -0.009982
     4  C    0.360670   0.373965   0.266975   5.052880  -0.017324  -0.005129
     5  C    0.007089   0.009219   0.200651  -0.017324   5.230452   0.101839
     6  C   -0.009920   0.000387  -0.009982  -0.005129   0.101839   5.111504
     7  N    0.000204  -0.000189  -0.054591   0.006436   0.292171  -0.029451
     8  O   -0.002111   0.000001  -0.000120   0.000626  -0.029728   0.481346
     9  H    0.395967  -0.007462  -0.005593  -0.035901  -0.010911   0.001492
    10  H    0.372352   0.008997  -0.017471  -0.013879   0.011436  -0.003106
    11  H    0.400708  -0.005519   0.008130  -0.015475  -0.000083   0.000031
    12  H   -0.006429   0.409705  -0.013272  -0.029674   0.000146   0.000079
    13  H   -0.008694   0.404161   0.007233  -0.007382  -0.000390  -0.000037
    14  H    0.012855   0.390226  -0.005774  -0.041477   0.000960  -0.000136
    15  H   -0.009529  -0.004423   0.383376  -0.007284  -0.024356   0.008100
    16  H    0.009706  -0.003136   0.361128  -0.011055  -0.003831  -0.018487
    17  H   -0.036952  -0.018724  -0.015836   0.371414  -0.030587   0.021859
    18  H    0.013175   0.000085  -0.013565  -0.012650   0.382783  -0.022359
    19  H   -0.000073  -0.000078  -0.008850   0.001093  -0.021357   0.004499
    20  H    0.000076   0.000014  -0.000925  -0.000451  -0.013778  -0.026308
               7          8          9         10         11         12
     1  C    0.000204  -0.002111   0.395967   0.372352   0.400708  -0.006429
     2  C   -0.000189   0.000001  -0.007462   0.008997  -0.005519   0.409705
     3  C   -0.054591  -0.000120  -0.005593  -0.017471   0.008130  -0.013272
     4  C    0.006436   0.000626  -0.035901  -0.013879  -0.015475  -0.029674
     5  C    0.292171  -0.029728  -0.010911   0.011436  -0.000083   0.000146
     6  C   -0.029451   0.481346   0.001492  -0.003106   0.000031   0.000079
     7  N    6.216547   0.001408   0.000082   0.000203  -0.000000   0.000000
     8  O    0.001408   7.572114   0.000227   0.008421  -0.000040   0.000000
     9  H    0.000082   0.000227   0.621032  -0.027779  -0.012717   0.004904
    10  H    0.000203   0.008421  -0.027779   0.647316  -0.016577  -0.000218
    11  H   -0.000000  -0.000040  -0.012717  -0.016577   0.532940  -0.000850
    12  H    0.000000   0.000000   0.004904  -0.000218  -0.000850   0.574167
    13  H    0.000003  -0.000000  -0.000523   0.000193   0.003670  -0.017919
    14  H   -0.000062   0.000000  -0.000319  -0.000776   0.000315  -0.015779
    15  H    0.000206  -0.000024   0.006457  -0.000676   0.000134   0.008028
    16  H   -0.000211  -0.000014   0.000096  -0.000219  -0.000295  -0.001119
    17  H    0.000212  -0.000342   0.011836  -0.014143  -0.002810   0.008100
    18  H   -0.022540  -0.007856   0.005806   0.000403  -0.000461   0.000037
    19  H    0.350792  -0.000156   0.000014  -0.000023   0.000001  -0.000007
    20  H    0.386194   0.000177   0.000003   0.000005  -0.000001   0.000002
              13         14         15         16         17         18
     1  C   -0.008694   0.012855  -0.009529   0.009706  -0.036952   0.013175
     2  C    0.404161   0.390226  -0.004423  -0.003136  -0.018724   0.000085
     3  C    0.007233  -0.005774   0.383376   0.361128  -0.015836  -0.013565
     4  C   -0.007382  -0.041477  -0.007284  -0.011055   0.371414  -0.012650
     5  C   -0.000390   0.000960  -0.024356  -0.003831  -0.030587   0.382783
     6  C   -0.000037  -0.000136   0.008100  -0.018487   0.021859  -0.022359
     7  N    0.000003  -0.000062   0.000206  -0.000211   0.000212  -0.022540
     8  O   -0.000000   0.000000  -0.000024  -0.000014  -0.000342  -0.007856
     9  H   -0.000523  -0.000319   0.006457   0.000096   0.011836   0.005806
    10  H    0.000193  -0.000776  -0.000676  -0.000219  -0.014143   0.000403
    11  H    0.003670   0.000315   0.000134  -0.000295  -0.002810  -0.000461
    12  H   -0.017919  -0.015779   0.008028  -0.001119   0.008100   0.000037
    13  H    0.574267  -0.020393   0.000089  -0.000127  -0.005789  -0.000000
    14  H   -0.020393   0.627540  -0.001928   0.005890  -0.012434  -0.000076
    15  H    0.000089  -0.001928   0.562600  -0.021308   0.008192  -0.005290
    16  H   -0.000127   0.005890  -0.021308   0.606450  -0.009569   0.005502
    17  H   -0.005789  -0.012434   0.008192  -0.009569   0.686246   0.000756
    18  H   -0.000000  -0.000076  -0.005290   0.005502   0.000756   0.489860
    19  H    0.000002  -0.000000   0.004263   0.001136  -0.000020  -0.000945
    20  H   -0.000000  -0.000012  -0.000770   0.005316   0.000048   0.004913
              19         20
     1  C   -0.000073   0.000076
     2  C   -0.000078   0.000014
     3  C   -0.008850  -0.000925
     4  C    0.001093  -0.000451
     5  C   -0.021357  -0.013778
     6  C    0.004499  -0.026308
     7  N    0.350792   0.386194
     8  O   -0.000156   0.000177
     9  H    0.000014   0.000003
    10  H   -0.000023   0.000005
    11  H    0.000001  -0.000001
    12  H   -0.000007   0.000002
    13  H    0.000002  -0.000000
    14  H   -0.000000  -0.000012
    15  H    0.004263  -0.000770
    16  H    0.001136   0.005316
    17  H   -0.000020   0.000048
    18  H   -0.000945   0.004913
    19  H    0.489908  -0.017235
    20  H   -0.017235   0.523307
 Mulliken charges:
               1
     1  C   -0.030604
     2  C    0.008781
     3  C   -0.026409
     4  C   -0.236379
     5  C   -0.084401
     6  C    0.393780
     7  N   -0.147414
     8  O   -0.023928
     9  H    0.053291
    10  H    0.045541
    11  H    0.108899
    12  H    0.080099
    13  H    0.071638
    14  H    0.061382
    15  H    0.094144
    16  H    0.074149
    17  H    0.038545
    18  H    0.182422
    19  H    0.197036
    20  H    0.139427
 Sum of Mulliken charges =   1.00000
 Mulliken charges with hydrogens summed into heavy atoms:
               1
     1  C    0.177128
     2  C    0.221900
     3  C    0.141884
     4  C   -0.197834
     5  C    0.098021
     6  C    0.393780
     7  N    0.189049
     8  O   -0.023928
 APT charges:
               1
     1  C    0.007699
     2  C    0.159095
     3  C    0.177020
     4  C   -0.103545
     5  C   -0.038212
     6  C    0.625944
     7  N   -0.393788
     8  O   -0.290707
     9  H    0.052917
    10  H   -0.043190
    11  H    0.106927
    12  H    0.058825
    13  H    0.029147
    14  H   -0.040010
    15  H    0.093306
    16  H    0.000003
    17  H   -0.103732
    18  H    0.192650
    19  H    0.274629
    20  H    0.235021
 Sum of APT charges =   1.00000
 APT charges with hydrogens summed into heavy atoms:
               1
     1  C    0.124353
     2  C    0.207057
     3  C    0.270329
     4  C   -0.207277
     5  C    0.154438
     6  C    0.625944
     7  N    0.115862
     8  O   -0.290707
 Electronic spatial extent (au):  <R**2>=           1174.9101
 Charge=              1.0000 electrons
 Dipole moment (field-independent basis, Debye):
    X=             -1.9860    Y=             -2.4378    Z=             -0.6712  Tot=              3.2152
 Quadrupole moment (field-independent basis, Debye-Ang):
   XX=            -35.4261   YY=            -39.1405   ZZ=            -43.3805
   XY=              3.9354   XZ=              3.0440   YZ=             -0.4281
 Traceless Quadrupole moment (field-independent basis, Debye-Ang):
   XX=              3.8896   YY=              0.1752   ZZ=             -4.0648
   XY=              3.9354   XZ=              3.0440   YZ=             -0.4281
 Octapole moment (field-independent basis, Debye-Ang**2):
  XXX=              0.4288  YYY=            -17.0127  ZZZ=              0.6796  XYY=            -11.4040
  XXY=             -0.0709  XXZ=            -11.5185  XZZ=             -6.0679  YZZ=             -1.5396
  YYZ=              2.3867  XYZ=             -2.2488
 Hexadecapole moment (field-independent basis, Debye-Ang**3):
 XXXX=           -890.8884 YYYY=           -346.7551 ZZZZ=           -134.9911 XXXY=             12.7797
 XXXZ=             20.9465 YYYX=             33.8323 YYYZ=             -8.5279 ZZZX=             -0.5879
 ZZZY=             -3.4941 XXYY=           -197.4559 XXZZ=           -170.3662 YYZZ=            -83.6266
 XXYZ=              5.0575 YYXZ=              4.8647 ZZXY=             -1.2347
 N-N= 3.799926834293D+02 E-N=-1.595069594969D+03  KE= 3.610346553318D+02
  Exact polarizability: 124.738  -0.137  99.162   4.688  -8.382  63.789
 Approx polarizability: 190.057 -34.812 247.787  22.673 -49.045 119.584
 Calling FoFJK, ICntrl=    100127 FMM=F ISym2X=0 I1Cent= 0 IOpClX= 0 NMat=1 NMatS=1 NMatT=0.
 Full mass-weighted force constant matrix:
 Low frequencies --- -961.1065 -345.7837 -254.2409 -227.3308 -159.5289 -144.3576
 Low frequencies ---  -56.7662   -0.0003    0.0005
 ******    5 imaginary frequencies (negative Signs) ****** 
 Diagonal vibrational polarizability:
       48.5159749      61.8253069      14.3183451
 Harmonic frequencies (cm**-1), IR intensities (KM/Mole), Raman scattering
 activities (A**4/AMU), depolarization ratios for plane and unpolarized
 incident light, reduced masses (AMU), force constants (mDyne/A),
 and normal coordinates:
                           1         2         3         4         5
                           A         A         A         A         A
       Frequencies ---  -959.8504 -337.1363 -222.1192 -200.0099 -104.2324
    Reduced masses ---     1.1242    1.0436    2.0893    2.7799    2.4942
   Force constants ---     0.6102    0.0699    0.0607    0.0655    0.0160
    IR Intensities ---   167.4184    5.5045    7.1397    0.9567    6.0737
 Coord Atom Element:
   1     1     6          0.00431   0.00650   0.00061   0.07738  -0.14182
   2     1     6         -0.00029  -0.00822   0.04935  -0.09778  -0.07479
   3     1     6         -0.00508   0.00116  -0.07061   0.20636  -0.02296
   1     2     6         -0.00100  -0.00226  -0.03159  -0.06881   0.09108
   2     2     6         -0.00068   0.00774   0.03951   0.07540   0.15889
   3     2     6         -0.00847  -0.02881  -0.07274  -0.16860   0.00391
   1     3     6         -0.00852   0.00103   0.00330  -0.02688   0.01072
   2     3     6          0.00573  -0.00577  -0.05118   0.01855  -0.13239
   3     3     6         -0.00024   0.00437   0.20005   0.05583  -0.04211
   1     4     6          0.00350  -0.01238  -0.04219  -0.03529  -0.05453
   2     4     6         -0.00219  -0.00747  -0.02196   0.04559  -0.09700
   3     4     6         -0.00381  -0.00380   0.00892   0.05052  -0.01311
   1     5     6          0.03350  -0.00274  -0.00194   0.01739  -0.00126
   2     5     6          0.00518   0.00546  -0.03803   0.00941  -0.01404
   3     5     6          0.02016  -0.00037   0.05717   0.03139  -0.03125
   1     6     6         -0.01605   0.00381   0.05825   0.02871   0.09019
   2     6     6         -0.00449  -0.01057   0.01461  -0.04090   0.00738
   3     6     6          0.02960  -0.01383   0.00617  -0.13217   0.01502
   1     7     7         -0.07060  -0.00415  -0.02936  -0.01309  -0.07831
   2     7     7          0.02661   0.00774  -0.01811   0.02607   0.07024
   3     7     7         -0.02533   0.03113  -0.13692   0.06771   0.07740
   1     8     8         -0.00129   0.00368   0.05926   0.03242   0.09468
   2     8     8         -0.00979  -0.00286   0.00321  -0.04723   0.03299
   3     8     8          0.00012  -0.01597   0.03179  -0.12683  -0.00143
   1     9     1          0.00599   0.03664   0.06688   0.19304  -0.19781
   2     9     1         -0.00380  -0.00541   0.09877  -0.23810  -0.06677
   3     9     1         -0.00607   0.00455  -0.03984   0.14427  -0.02231
   1    10     1          0.00656  -0.00456  -0.00085   0.06738  -0.14231
   2    10     1          0.00051  -0.02072   0.03870  -0.09771  -0.07969
   3    10     1         -0.00082   0.01137  -0.04324   0.37204  -0.07994
   1    11     1          0.00646  -0.00820   0.00275   0.06957  -0.15267
   2    11     1         -0.00283   0.01008   0.04355  -0.08634  -0.05966
   3    11     1         -0.00283  -0.02237  -0.14680   0.19343   0.03579
   1    12     1         -0.00100  -0.25276   0.03020   0.06849   0.29513
   2    12     1         -0.00355  -0.35088   0.02910   0.10384   0.29303
   3    12     1         -0.01024  -0.19774  -0.09677  -0.18792   0.03421
   1    13     1          0.00311   0.17628  -0.09174  -0.14323  -0.23580
   2    13     1         -0.00602   0.13069   0.12073   0.07485   0.52745
   3    13     1         -0.00896   0.66173  -0.05311  -0.35075  -0.03334
   1    14     1         -0.00629   0.17538  -0.01677  -0.18179   0.26036
   2    14     1         -0.00105   0.37367   0.06395   0.04894   0.11365
   3    14     1         -0.00773  -0.31257  -0.09061  -0.12580  -0.00104
   1    15     1          0.00622  -0.00598   0.05192   0.03534  -0.03274
   2    15     1          0.00416   0.02120   0.23165   0.03692  -0.17706
   3    15     1         -0.00607   0.02781   0.40139   0.04507  -0.05914
   1    16     1          0.00094   0.00364   0.08894  -0.00216  -0.03331
   2    16     1          0.00101  -0.02888  -0.24240   0.01439  -0.10510
   3    16     1         -0.00067   0.02215   0.34332   0.05518  -0.05904
   1    17     1         -0.01759  -0.05364  -0.33561  -0.29206  -0.06695
   2    17     1         -0.00184   0.03324  -0.22922   0.29024  -0.13157
   3    17     1          0.00160   0.03055   0.01390   0.26079  -0.02517
   1    18     1          0.00292   0.01239  -0.12200  -0.05852   0.16163
   2    18     1         -0.00904   0.01810  -0.05920   0.11952  -0.01432
   3    18     1          0.02206  -0.00655   0.07242  -0.00917  -0.04087
   1    19     1         -0.07148   0.00025  -0.07469   0.00520  -0.11882
   2    19     1          0.08765   0.01707  -0.08903   0.03579   0.08542
   3    19     1          0.22114   0.05343  -0.29150   0.08279   0.17159
   1    20     1          0.87813  -0.00832   0.02983  -0.00473  -0.08438
   2    20     1         -0.31841  -0.03616   0.28575  -0.03737  -0.07571
   3    20     1         -0.23429   0.03997  -0.20666   0.07626   0.10413
                           6         7         8         9        10
                           A         A         A         A         A
       Frequencies ---   158.0740  194.7714  228.9145  292.2131  341.8149
    Reduced masses ---     2.6378    1.2019    2.3505    2.2185    2.8283
   Force constants ---     0.0388    0.0269    0.0726    0.1116    0.1947
    IR Intensities ---    10.2182    4.3411   19.7133   12.1771   14.2572
 Coord Atom Element:
   1     1     6         -0.06298   0.06126   0.14192  -0.14050  -0.08850
   2     1     6          0.11431   0.00767   0.02634  -0.05739  -0.04641
   3     1     6         -0.02570  -0.01459  -0.02743   0.00731  -0.01037
   1     2     6         -0.11012  -0.00113   0.10293  -0.02743  -0.00543
   2     2     6          0.00147   0.01980   0.04292  -0.03399  -0.03878
   3     2     6          0.01317   0.04431   0.01297   0.03114  -0.03624
   1     3     6         -0.07422  -0.00769  -0.04399   0.02526  -0.06779
   2     3     6          0.02847  -0.00230  -0.01796  -0.01297  -0.03962
   3     3     6         -0.06827  -0.01743  -0.00279  -0.01359   0.04714
   1     4     6         -0.05595  -0.03265   0.06420  -0.00114  -0.02241
   2     4     6          0.07406  -0.00180  -0.05874   0.03135  -0.11664
   3     4     6          0.02027   0.00855   0.06241  -0.06734   0.07905
   1     5     6          0.01802  -0.06547   0.05273   0.18933   0.02565
   2     5     6         -0.06263  -0.00866  -0.01231   0.01435   0.12921
   3     5     6          0.13263  -0.02971   0.10212   0.04079   0.09647
   1     6     6          0.14017   0.00556  -0.06267   0.00624  -0.03254
   2     6     6         -0.04038  -0.00662  -0.02339  -0.01539   0.04550
   3     6     6         -0.00693   0.01488  -0.02626  -0.03988  -0.05215
   1     7     7         -0.03106  -0.01987  -0.10909   0.01071   0.24329
   2     7     7         -0.04458  -0.03632   0.08995   0.14916  -0.04122
   3     7     7          0.01453  -0.00504  -0.03130  -0.00512  -0.02792
   1     8     8          0.18447   0.03167  -0.11868  -0.03708  -0.05309
   2     8     8         -0.05967   0.02420  -0.09125  -0.07881   0.09910
   3     8     8         -0.00954   0.00094  -0.01594   0.03052  -0.03064
   1     9     1         -0.11872   0.66202   0.15156   0.22155   0.02478
   2     9     1          0.15181   0.02372   0.11177  -0.16356   0.05058
   3     9     1         -0.00836   0.03100   0.01830  -0.02097   0.04757
   1    10     1         -0.03416  -0.13884   0.17566  -0.31870  -0.15428
   2    10     1          0.14192  -0.23738   0.06425  -0.29493  -0.15025
   3    10     1         -0.08302   0.30260  -0.04636   0.22565  -0.03111
   1    11     1         -0.03027  -0.15985   0.19022  -0.35332  -0.17212
   2    11     1          0.07260   0.29018  -0.04152   0.22684   0.06145
   3    11     1         -0.00787  -0.46074  -0.11091  -0.11841  -0.12191
   1    12     1         -0.20039   0.00925   0.20035  -0.15358   0.12437
   2    12     1         -0.05955   0.06618   0.05878  -0.03342  -0.07069
   3    12     1         -0.00119   0.07162  -0.00434   0.06798  -0.09594
   1    13     1          0.03389  -0.04571  -0.03643   0.12092  -0.14423
   2    13     1         -0.15728   0.06280   0.22710  -0.20913   0.12993
   3    13     1          0.03883   0.02586   0.05315   0.03127  -0.02896
   1    14     1         -0.17698   0.02703   0.18212  -0.05623   0.00087
   2    14     1          0.01870  -0.00987   0.06698  -0.07558   0.02927
   3    14     1          0.01383   0.05858  -0.02119   0.06525  -0.08361
   1    15     1          0.06330  -0.06850  -0.02771   0.22635  -0.16898
   2    15     1         -0.37489  -0.06606  -0.36282   0.14228  -0.39880
   3    15     1         -0.44420  -0.04227  -0.27646   0.02167  -0.18997
   1    16     1         -0.17449  -0.01042  -0.13513   0.04091  -0.24049
   2    16     1          0.34603   0.03493   0.22070  -0.09947   0.21288
   3    16     1         -0.31143  -0.04643  -0.18548   0.05294  -0.13354
   1    17     1         -0.11895   0.01699  -0.02103   0.02804  -0.16302
   2    17     1          0.03953   0.03245  -0.10375   0.02527  -0.21735
   3    17     1          0.02194   0.00797   0.06845  -0.08160   0.08174
   1    18     1         -0.04674  -0.01763  -0.04231   0.14826  -0.01672
   2    18     1         -0.06386  -0.04900   0.05471   0.11379   0.10644
   3    18     1          0.13599  -0.01655   0.07989   0.00187   0.10640
   1    19     1         -0.01871  -0.00660  -0.18944  -0.08460   0.33076
   2    19     1         -0.09314  -0.01215  -0.01509   0.06525  -0.02313
   3    19     1         -0.13310   0.04493  -0.23113  -0.12421  -0.08627
   1    20     1          0.05362  -0.01654  -0.08627   0.00373   0.31554
   2    20     1          0.17171  -0.11141   0.43091   0.36252   0.06437
   3    20     1         -0.04776   0.00699  -0.09696  -0.03977  -0.06551
                          11        12        13        14        15
                           A         A         A         A         A
       Frequencies ---   369.7348  417.1400  510.6452  592.4210  616.6869
    Reduced masses ---     2.2901    2.6058    4.5112    2.8147    2.8860
   Force constants ---     0.1845    0.2671    0.6931    0.5820    0.6467
    IR Intensities ---    19.1279   64.4669    1.3368  262.9435   55.0111
 Coord Atom Element:
   1     1     6         -0.04337  -0.12435   0.00936   0.00035  -0.00542
   2     1     6          0.13554  -0.01232  -0.04177  -0.00192   0.01156
   3     1     6          0.03928   0.03255   0.03443   0.00954  -0.03240
   1     2     6         -0.02773   0.16142  -0.04942  -0.06295   0.04415
   2     2     6         -0.05848  -0.04559   0.02722  -0.01405   0.04484
   3     2     6         -0.08286  -0.10884  -0.00081   0.00146   0.01408
   1     3     6          0.09977   0.00326   0.18401  -0.14319  -0.09272
   2     3     6         -0.10162   0.11011  -0.10841   0.09117  -0.00848
   3     3     6          0.01831   0.02054  -0.02081  -0.07257   0.05035
   1     4     6          0.03488   0.17112  -0.03285  -0.05658   0.07575
   2     4     6         -0.01100  -0.00488   0.03391  -0.09185   0.01592
   3     4     6          0.16836   0.01894  -0.06186   0.08320  -0.02265
   1     5     6          0.04682  -0.10577  -0.01314   0.16104   0.14390
   2     5     6         -0.02922  -0.01749  -0.07402  -0.10855  -0.17738
   3     5     6         -0.14060   0.08937   0.09080  -0.05987  -0.02680
   1     6     6          0.02412  -0.02012   0.08583   0.04150   0.00394
   2     6     6         -0.00708   0.03346   0.09605   0.15856   0.21573
   3     6     6          0.01853   0.04910   0.29907   0.14307  -0.12599
   1     7     7         -0.02892  -0.09737  -0.02154   0.02960  -0.05920
   2     7     7          0.07007  -0.06272  -0.04614  -0.01608  -0.09147
   3     7     7         -0.00628   0.01490  -0.00905   0.02316   0.08050
   1     8     8         -0.04265   0.03871  -0.14015  -0.00216  -0.04683
   2     8     8          0.00578   0.00274   0.13467  -0.07613   0.07255
   3     8     8          0.01614  -0.05998  -0.25087  -0.08107   0.02098
   1     9     1         -0.00826  -0.05829   0.03297   0.01359   0.06333
   2     9     1          0.36417   0.03133  -0.17959   0.25136  -0.15610
   3     9     1          0.15634   0.05716  -0.03236   0.13510  -0.10369
   1    10     1         -0.09634  -0.29511   0.02467   0.04005  -0.02783
   2    10     1          0.04513  -0.26693  -0.01988   0.05039  -0.04659
   3    10     1         -0.10523  -0.03596   0.15353  -0.06587   0.12151
   1    11     1         -0.11485  -0.34561   0.03938   0.02881  -0.00574
   2    11     1          0.22546   0.28616  -0.08732  -0.05205   0.01564
   3    11     1         -0.11453   0.05997   0.07915  -0.22950   0.08412
   1    12     1          0.04989   0.24456  -0.23089   0.14482  -0.12557
   2    12     1         -0.22181  -0.18270   0.05463  -0.05027   0.06243
   3    12     1         -0.21600  -0.22509   0.07238  -0.08314   0.07994
   1    13     1          0.04288   0.18484   0.14453  -0.29387   0.28781
   2    13     1         -0.19619  -0.10364  -0.17853   0.25045  -0.23582
   3    13     1         -0.19562  -0.17769   0.05155  -0.00872   0.02946
   1    14     1         -0.25166   0.02860  -0.03407  -0.00634   0.05054
   2    14     1          0.05498   0.05518  -0.04886   0.07726  -0.06327
   3    14     1         -0.11190  -0.15296   0.04841  -0.07581   0.08297
   1    15     1         -0.10983  -0.04387   0.26883  -0.19735   0.04759
   2    15     1         -0.29783   0.10433  -0.22498   0.34631  -0.12384
   3    15     1         -0.04381   0.03883  -0.15183   0.15538  -0.09005
   1    16     1          0.18903  -0.04459   0.07305   0.02361   0.00287
   2    16     1          0.02638   0.08570  -0.01725  -0.14296   0.05825
   3    16     1         -0.09366   0.04412  -0.08120   0.09298  -0.02093
   1    17     1         -0.12654   0.34078  -0.22518   0.42037  -0.46776
   2    17     1         -0.08179   0.05280   0.06056   0.20184  -0.33366
   3    17     1          0.19418  -0.01545   0.02142   0.04733  -0.00360
   1    18     1          0.16777  -0.23274   0.27664  -0.01941  -0.31250
   2    18     1         -0.04828   0.00524  -0.23584   0.06519   0.07233
   3    18     1         -0.13886   0.09082   0.15040  -0.11181  -0.09374
   1    19     1         -0.12240  -0.03456  -0.08716   0.15790   0.09823
   2    19     1          0.09939  -0.08474  -0.12144  -0.02810  -0.04893
   3    19     1          0.18066  -0.11608  -0.17367  -0.15060   0.05612
   1    20     1         -0.14220  -0.02431   0.05243   0.02310  -0.06460
   2    20     1         -0.17921   0.09173   0.30040   0.06513  -0.29765
   3    20     1          0.06928  -0.03315  -0.08872   0.01128   0.11411
                          16        17        18        19        20
                           A         A         A         A         A
       Frequencies ---   653.3460  699.6374  754.3512  794.4034  825.4312
    Reduced masses ---     3.6104    3.5308    1.4527    1.1417    2.0989
   Force constants ---     0.9080    1.0183    0.4870    0.4245    0.8426
    IR Intensities ---    17.7990   73.4135   49.2158   22.7299  105.7380
 Coord Atom Element:
   1     1     6          0.00092   0.01005   0.00087  -0.00252   0.00361
   2     1     6         -0.03994   0.02837  -0.02527  -0.03541  -0.08786
   3     1     6         -0.04028   0.00956  -0.01703   0.00052  -0.03165
   1     2     6          0.00861  -0.00309  -0.06466   0.03473  -0.05977
   2     2     6         -0.00095  -0.04741  -0.05350   0.01179   0.00378
   3     2     6         -0.02356   0.00557   0.00225  -0.01939   0.00314
   1     3     6         -0.04375   0.01041   0.07982  -0.03030   0.19273
   2     3     6          0.11474  -0.08339   0.05811  -0.00834   0.10508
   3     3     6          0.07127  -0.09031   0.08726  -0.00125   0.05423
   1     4     6          0.02270  -0.01023  -0.02959   0.00854  -0.02251
   2     4     6         -0.01315  -0.01247   0.00252  -0.03900  -0.06411
   3     4     6         -0.04513   0.01321  -0.00407  -0.02461   0.00147
   1     5     6         -0.09463  -0.08520   0.03607   0.00768  -0.04092
   2     5     6          0.10014   0.03021  -0.06049  -0.00958   0.01285
   3     5     6         -0.05493   0.07718   0.03516   0.03547  -0.07635
   1     6     6          0.32238   0.27594   0.02032   0.00445  -0.03140
   2     6     6          0.03966   0.04015   0.00792  -0.00327   0.07527
   3     6     6          0.10900  -0.20945  -0.04051   0.01056  -0.02350
   1     7     7          0.02773  -0.07697  -0.00733   0.02349  -0.05153
   2     7     7          0.07754  -0.07608   0.01261   0.02318  -0.03427
   3     7     7         -0.05357   0.09245  -0.04479  -0.04953   0.06517
   1     8     8         -0.12248  -0.16463  -0.02794  -0.00571   0.02488
   2     8     8         -0.16761   0.05895   0.04013   0.00943  -0.05683
   3     8     8          0.01875   0.08209   0.00519   0.00868   0.03331
   1     9     1          0.01630   0.02192  -0.02156  -0.07885  -0.12044
   2     9     1         -0.22749   0.20759  -0.03940   0.29848   0.10454
   3     9     1         -0.13055   0.09982  -0.02992   0.15945   0.04983
   1    10     1         -0.02956   0.03422  -0.01396   0.00729  -0.02241
   2    10     1         -0.09292   0.05940  -0.03655  -0.04041  -0.12967
   3    10     1          0.08902  -0.09494  -0.01350  -0.25737  -0.24716
   1    11     1         -0.01249   0.01600  -0.01469  -0.04828  -0.07027
   2    11     1         -0.02427   0.01952  -0.00536   0.01998  -0.00098
   3    11     1          0.09771  -0.14000  -0.01155  -0.19953  -0.11767
   1    12     1         -0.05661   0.08512   0.11818  -0.12695  -0.16156
   2    12     1          0.02315  -0.07306  -0.04228   0.14174   0.13917
   3    12     1          0.01404  -0.03790  -0.04544   0.11855   0.12397
   1    13     1          0.08666  -0.08465  -0.32934   0.15318  -0.06674
   2    13     1         -0.08196   0.02535   0.27490  -0.09544   0.04737
   3    13     1         -0.00048  -0.04656   0.03766   0.04944   0.09175
   1    14     1          0.03468  -0.04083  -0.00344   0.11180   0.03434
   2    14     1         -0.05620  -0.00276   0.04913  -0.12944  -0.08948
   3    14     1          0.00708  -0.01664  -0.07768   0.06173   0.04795
   1    15     1         -0.34646   0.19855   0.46974   0.19350  -0.07580
   2    15     1         -0.14460   0.26170  -0.10456   0.06195  -0.21086
   3    15     1         -0.00551   0.09580  -0.21250  -0.04325  -0.07486
   1    16     1         -0.15412   0.05161  -0.00504  -0.13030   0.17702
   2    16     1          0.23928  -0.25966   0.19754  -0.04821   0.23471
   3    16     1         -0.01474   0.04610  -0.01269   0.04167  -0.05007
   1    17     1         -0.23887   0.32519   0.40318  -0.21253  -0.19196
   2    17     1         -0.26036   0.31568   0.00543   0.53691   0.18750
   3    17     1         -0.07400   0.04701  -0.15790   0.33315   0.18822
   1    18     1         -0.24526   0.24760  -0.24985  -0.16137  -0.07053
   2    18     1         -0.02160   0.01641  -0.04665  -0.09250   0.38293
   3    18     1          0.00529   0.05547   0.05196   0.08348  -0.23266
   1    19     1          0.09991   0.17969  -0.14700  -0.07367   0.18065
   2    19     1          0.20069  -0.10051   0.04908   0.06230  -0.07619
   3    19     1          0.18565  -0.21903   0.20898   0.15276  -0.28702
   1    20     1         -0.17024   0.29175  -0.17085  -0.13836   0.21191
   2    20     1         -0.35838   0.18215  -0.27156  -0.18924   0.25309
   3    20     1          0.07824  -0.06380   0.05184   0.03486  -0.06143
                          21        22        23        24        25
                           A         A         A         A         A
       Frequencies ---   856.4401  921.6139  954.9932  990.1174 1038.2391
    Reduced masses ---     1.5578    2.7840    2.1269    1.8708    1.3377
   Force constants ---     0.6732    1.3932    1.1429    1.0805    0.8496
    IR Intensities ---   122.1398   51.9741   24.4016   12.2926   99.3642
 Coord Atom Element:
   1     1     6         -0.02243   0.00774  -0.00118  -0.11032   0.04330
   2     1     6         -0.03533   0.13654   0.04465   0.03448  -0.01732
   3     1     6         -0.01391   0.07995   0.03756   0.02577  -0.04480
   1     2     6          0.02860   0.00181   0.10085   0.14058   0.00042
   2     2     6          0.12078  -0.12683  -0.04382  -0.09909   0.02259
   3     2     6          0.02790  -0.05706  -0.04623  -0.00186   0.06953
   1     3     6          0.03740   0.01957  -0.09830   0.04821  -0.07657
   2     3     6         -0.08019  -0.15845  -0.02235   0.11017   0.01351
   3     3     6          0.02767  -0.02355   0.15526  -0.03672   0.01217
   1     4     6         -0.06778   0.01534  -0.09634  -0.13306   0.03055
   2     4     6         -0.01769   0.04278   0.03784  -0.02483  -0.01451
   3     4     6          0.01618  -0.06282  -0.08033   0.02016   0.03171
   1     5     6         -0.05308  -0.11577   0.02435  -0.00223  -0.07096
   2     5     6          0.00938   0.00728  -0.04490   0.00632  -0.01131
   3     5     6          0.02886   0.02697  -0.12407  -0.00560  -0.06555
   1     6     6         -0.02754  -0.06455   0.04275  -0.00443  -0.00276
   2     6     6          0.08272   0.18506  -0.07491  -0.00295   0.00523
   3     6     6         -0.01230   0.00537   0.04618  -0.00488   0.03356
   1     7     7          0.02086   0.04206   0.00785  -0.01084   0.02071
   2     7     7          0.02697   0.04303  -0.02124  -0.00395   0.01511
   3     7     7         -0.01310  -0.00115   0.01708   0.00559   0.01329
   1     8     8          0.01891   0.03802  -0.01548   0.00112   0.00548
   2     8     8         -0.05788  -0.13798   0.05142  -0.00512  -0.01871
   3     8     8         -0.00316  -0.01373   0.01436   0.00077  -0.00340
   1     9     1          0.05853   0.00389  -0.01133   0.18032  -0.03759
   2     9     1          0.03488   0.06274  -0.02503  -0.00738  -0.08435
   3     9     1          0.02121   0.04348  -0.00321   0.02992  -0.07711
   1    10     1          0.08738  -0.02353   0.01073   0.09714  -0.05060
   2    10     1          0.14295   0.09742   0.10963   0.34895  -0.16746
   3    10     1          0.05343   0.20707   0.09133   0.30105  -0.12776
   1    11     1          0.12307  -0.04146  -0.01470   0.19799  -0.05805
   2    11     1         -0.24234   0.21607   0.07259  -0.39122   0.12269
   3    11     1         -0.23782   0.20132   0.10091  -0.26015   0.13467
   1    12     1         -0.04388   0.02218   0.01260   0.21377   0.14553
   2    12     1         -0.18017   0.20881   0.04311  -0.12872  -0.22193
   3    12     1         -0.15742   0.16962   0.03680  -0.04058  -0.13881
   1    13     1          0.34270  -0.21062   0.13357   0.05111  -0.04831
   2    13     1         -0.36069   0.25677  -0.04492  -0.00810  -0.02141
   3    13     1         -0.20058   0.20943   0.02123  -0.04124  -0.13449
   1    14     1         -0.23503   0.31541   0.15176   0.12854  -0.16162
   2    14     1          0.18415  -0.23129  -0.09713  -0.05878   0.17567
   3    14     1          0.02255  -0.03335  -0.01730  -0.02456  -0.01044
   1    15     1          0.11732   0.32666   0.00562   0.26855   0.66647
   2    15     1         -0.11521  -0.04006  -0.32499   0.17772   0.15553
   3    15     1         -0.03199  -0.05982  -0.12912  -0.08262  -0.19797
   1    16     1         -0.10386  -0.10481  -0.29294   0.08036  -0.08025
   2    16     1         -0.06846  -0.18641   0.08450   0.09353  -0.00279
   3    16     1          0.03165   0.00639   0.08956  -0.02335   0.02716
   1    17     1          0.42149  -0.03981   0.29515  -0.40841  -0.25579
   2    17     1          0.02549  -0.01148   0.35278  -0.10438  -0.02802
   3    17     1         -0.13818  -0.06981  -0.06934   0.07840   0.12805
   1    18     1         -0.21481  -0.13904   0.11747   0.04690   0.25758
   2    18     1          0.19147   0.17237   0.39019  -0.06380   0.07350
   3    18     1         -0.03827  -0.04962  -0.31375   0.02065  -0.12460
   1    19     1          0.09952   0.26557  -0.08435   0.01487   0.07937
   2    19     1          0.06898   0.12285  -0.08857  -0.00173   0.02835
   3    19     1          0.00925  -0.04362  -0.06737  -0.01516  -0.03413
   1    20     1          0.00592   0.05539   0.14484  -0.00890   0.07351
   2    20     1         -0.08584  -0.10433   0.23886  -0.00685   0.07891
   3    20     1          0.01264   0.02340  -0.06642   0.00507  -0.01125
                          26        27        28        29        30
                           A         A         A         A         A
       Frequencies ---  1071.9702 1087.0288 1111.4769 1128.7500 1137.9922
    Reduced masses ---     1.5290    1.3121    2.7455    1.8291    1.5768
   Force constants ---     1.0352    0.9135    1.9983    1.3730    1.2031
    IR Intensities ---    13.0594    3.9070    1.4395   29.5330   69.4978
 Coord Atom Element:
   1     1     6          0.04136  -0.00097  -0.03157  -0.10396   0.04283
   2     1     6          0.06588  -0.03423   0.03349  -0.02210   0.00244
   3     1     6         -0.06719  -0.00735  -0.04727  -0.05961   0.03573
   1     2     6          0.06066   0.01641  -0.00978  -0.03924   0.02073
   2     2     6         -0.02670   0.00329  -0.01342  -0.03081   0.00511
   3     2     6          0.06264  -0.03307   0.05198   0.03848   0.00374
   1     3     6          0.04535  -0.03559   0.01857  -0.02672  -0.00221
   2     3     6          0.00146   0.03649  -0.04701  -0.05783  -0.02933
   3     3     6         -0.00781   0.09145   0.03966   0.05696   0.02184
   1     4     6         -0.10696  -0.02611   0.04129   0.16726  -0.06628
   2     4     6         -0.04613   0.02212   0.00046   0.10181  -0.01276
   3     4     6         -0.02563   0.00369  -0.02896  -0.01450  -0.02362
   1     5     6         -0.00487  -0.02908   0.12631  -0.02098   0.09086
   2     5     6         -0.06942  -0.02559   0.24095  -0.03156   0.12214
   3     5     6          0.04606   0.00472  -0.00244  -0.05276  -0.06897
   1     6     6         -0.01465  -0.03248  -0.02011  -0.00675  -0.00919
   2     6     6          0.02732   0.07238   0.10425  -0.02964  -0.04682
   3     6     6         -0.02824  -0.05061   0.00962   0.01738   0.02797
   1     7     7          0.02141  -0.00382  -0.08777  -0.00025  -0.08539
   2     7     7          0.04959   0.01797  -0.18478   0.05056  -0.01281
   3     7     7         -0.00257  -0.00604  -0.04191   0.03434   0.03697
   1     8     8         -0.00116   0.01073   0.01902   0.00213   0.00607
   2     8     8         -0.00139  -0.03754  -0.06979   0.01128   0.00863
   3     8     8          0.00159  -0.00524  -0.00350  -0.00008  -0.01052
   1     9     1         -0.04735  -0.02887   0.08776   0.20128  -0.10702
   2     9     1         -0.29491   0.03983  -0.16041  -0.14059   0.09823
   3     9     1         -0.25031   0.02643  -0.13002  -0.09634   0.06787
   1    10     1         -0.09645   0.00642  -0.01396   0.04672  -0.00865
   2    10     1         -0.10086  -0.02169   0.05804   0.15909  -0.05423
   3    10     1          0.05223  -0.05545   0.11938   0.09419  -0.04803
   1    11     1         -0.05703  -0.01478   0.05228   0.18374  -0.07964
   2    11     1          0.21016  -0.01931  -0.07379  -0.41237   0.16997
   3    11     1          0.35367  -0.05566   0.07603  -0.24128   0.05273
   1    12     1          0.12722  -0.06119   0.08582   0.08168   0.01632
   2    12     1         -0.24208   0.09462  -0.15261  -0.05696  -0.03164
   3    12     1         -0.11105   0.05226  -0.07509  -0.01730  -0.02034
   1    13     1         -0.06110   0.09479  -0.14696  -0.21993   0.04820
   2    13     1          0.00728  -0.04692   0.08194   0.16322  -0.04168
   3    13     1         -0.15215   0.04662  -0.07912  -0.00245  -0.02654
   1    14     1         -0.10939   0.06381  -0.09134  -0.07147  -0.00011
   2    14     1          0.10880  -0.06753   0.11916   0.11049   0.00221
   3    14     1         -0.00663   0.00984  -0.02502  -0.04461   0.00481
   1    15     1         -0.33459  -0.04586  -0.00295  -0.08973   0.19673
   2    15     1         -0.08965  -0.12547  -0.10600  -0.14472  -0.00141
   3    15     1          0.08671  -0.02788   0.00279   0.01841  -0.04406
   1    16     1          0.13224   0.14442  -0.22819   0.00856  -0.07012
   2    16     1         -0.02494   0.12877  -0.01804   0.02892   0.02848
   3    16     1          0.00077  -0.00045   0.05107  -0.02172  -0.01591
   1    17     1         -0.07636   0.17083  -0.04660  -0.02742   0.03642
   2    17     1          0.46076   0.03462   0.37594   0.37291  -0.08129
   3    17     1          0.20461  -0.06003   0.18323   0.18573  -0.09348
   1    18     1         -0.11212   0.72598   0.34631  -0.18461  -0.34990
   2    18     1         -0.15343  -0.49678   0.09649  -0.22383  -0.43556
   3    18     1          0.09546   0.15929   0.03817   0.03573   0.19226
   1    19     1          0.09674   0.13120  -0.36596   0.30997   0.52047
   2    19     1          0.06416   0.05073  -0.19830   0.07052   0.04590
   3    19     1         -0.04209  -0.05258   0.22066  -0.22920  -0.40826
   1    20     1          0.01021  -0.02022  -0.24327   0.09290  -0.02636
   2    20     1         -0.04564  -0.11150  -0.14245   0.02674  -0.14361
   3    20     1          0.01941   0.01978  -0.01317   0.01023   0.03169
                          31        32        33        34        35
                           A         A         A         A         A
       Frequencies ---  1161.4098 1211.7792 1224.3964 1313.8508 1347.0304
    Reduced masses ---     1.8578    1.3548    1.3991    1.6925    1.1613
   Force constants ---     1.4765    1.1722    1.2358    1.7213    1.2415
    IR Intensities ---     2.9106   20.0630   16.1537   25.2933    4.5839
 Coord Atom Element:
   1     1     6          0.04058   0.01047   0.00594  -0.02797   0.01039
   2     1     6         -0.09459  -0.02647  -0.03925   0.02847   0.00590
   3     1     6          0.07767  -0.03076  -0.04468   0.04055   0.00909
   1     2     6          0.05682   0.02460   0.02842  -0.06767  -0.10878
   2     2     6         -0.05174  -0.01240  -0.02674   0.05580   0.01806
   3     2     6          0.09460  -0.02461  -0.01925   0.04933   0.01387
   1     3     6          0.00266  -0.04759  -0.06164  -0.04747   0.01872
   2     3     6         -0.02489  -0.04592  -0.05606   0.00853  -0.00371
   3     3     6          0.01020   0.01184   0.00253   0.03737  -0.00136
   1     4     6         -0.03496  -0.04079  -0.03594   0.06248  -0.01157
   2     4     6          0.15870   0.05073   0.07477  -0.13748   0.02830
   3     4     6         -0.12439   0.04785   0.05333  -0.14669   0.00022
   1     5     6          0.00576  -0.01565   0.01939  -0.01580   0.00311
   2     5     6         -0.02324   0.05120   0.03118   0.01498  -0.00588
   3     5     6          0.01981  -0.06620   0.07025   0.00366  -0.00020
   1     6     6          0.00106   0.00682   0.00556   0.00193  -0.00213
   2     6     6          0.03884   0.04949  -0.02932  -0.01464   0.00083
   3     6     6         -0.00494  -0.00461   0.04034   0.00321  -0.00380
   1     7     7          0.01214   0.05007  -0.03803   0.00824  -0.00154
   2     7     7         -0.00371  -0.02077  -0.01084   0.00044   0.00232
   3     7     7          0.00268   0.05012  -0.04566   0.00042  -0.00026
   1     8     8         -0.00366  -0.00028  -0.00041  -0.00027   0.00171
   2     8     8         -0.01809  -0.02964   0.01384   0.00676   0.00136
   3     8     8         -0.00723   0.00014  -0.00758   0.00339   0.00180
   1     9     1         -0.17533  -0.05384  -0.01355   0.13188  -0.07538
   2     9     1          0.31917  -0.06796  -0.08771   0.31552  -0.09304
   3     9     1          0.24836  -0.05876  -0.07106   0.20385  -0.05045
   1    10     1          0.09240  -0.02328  -0.00169   0.09162  -0.03296
   2    10     1         -0.00875  -0.07857  -0.05188   0.23067  -0.07946
   3    10     1         -0.28525  -0.04714  -0.09625   0.25300  -0.06418
   1    11     1         -0.13277  -0.00862  -0.01977  -0.02836   0.01431
   2    11     1          0.12849  -0.00294  -0.00519   0.05434  -0.01140
   3    11     1         -0.29454  -0.02180  -0.01874   0.20587  -0.10880
   1    12     1          0.16986   0.04211   0.05836  -0.01787   0.70626
   2    12     1         -0.31011   0.06750   0.06218  -0.22589  -0.01921
   3    12     1         -0.12850   0.02904   0.03662  -0.16319  -0.22514
   1    13     1         -0.20512   0.06809   0.04273  -0.04866   0.21052
   2    13     1          0.11523  -0.02014  -0.00549  -0.09330  -0.27933
   3    13     1         -0.20378   0.05477   0.05041  -0.20334   0.16110
   1    14     1         -0.09565   0.03702   0.04985   0.28842   0.44351
   2    14     1          0.21806  -0.04226  -0.03330  -0.01225  -0.16158
   3    14     1         -0.06686  -0.00121  -0.01378  -0.01557   0.00688
   1    15     1         -0.24668   0.11443   0.04562   0.04322  -0.05478
   2    15     1         -0.07987   0.03115   0.07995  -0.06173   0.01087
   3    15     1          0.06889  -0.00304   0.05942  -0.05824   0.03926
   1    16     1         -0.00356   0.44195   0.62449   0.58771  -0.12165
   2    16     1          0.02282   0.10942   0.16678   0.12181   0.02457
   3    16     1         -0.02958  -0.16431  -0.24459  -0.13071  -0.00291
   1    17     1         -0.28256   0.07127   0.02056   0.00361  -0.03798
   2    17     1         -0.13242   0.05363   0.06217   0.04550   0.04706
   3    17     1         -0.17300   0.00779   0.02812  -0.03970   0.01804
   1    18     1          0.00582  -0.37927   0.07741  -0.00446   0.01688
   2    18     1          0.03736  -0.33607   0.47658   0.00623  -0.00261
   3    18     1         -0.00874   0.11297  -0.11838   0.00862  -0.00303
   1    19     1         -0.09691  -0.41188   0.25528  -0.03386  -0.00138
   2    19     1         -0.01828  -0.12736   0.08202  -0.00068  -0.00244
   3    19     1          0.07779   0.22568  -0.10403   0.03171  -0.00775
   1    20     1          0.00340   0.15065  -0.14892   0.00168   0.00163
   2    20     1          0.01024   0.37923  -0.27440   0.03423  -0.00514
   3    20     1          0.00406  -0.04091   0.02604  -0.00235  -0.00015
                          36        37        38        39        40
                           A         A         A         A         A
       Frequencies ---  1393.5807 1415.1168 1442.1204 1456.8485 1468.9817
    Reduced masses ---     1.1508    1.1421    1.1409    1.0778    1.1296
   Force constants ---     1.3168    1.3475    1.3980    1.3477    1.4362
    IR Intensities ---    17.4818   41.8262   13.7415   42.9607   22.7924
 Coord Atom Element:
   1     1     6         -0.01121  -0.01357  -0.01723   0.02923   0.02813
   2     1     6         -0.04767  -0.06660  -0.01627   0.00181  -0.04476
   3     1     6         -0.07063  -0.06674  -0.03532  -0.04842  -0.06404
   1     2     6          0.00357  -0.00692   0.00587  -0.01202   0.01309
   2     2     6          0.00158  -0.02707   0.01683  -0.03509   0.03219
   3     2     6         -0.00121  -0.00498  -0.00026   0.02661  -0.01825
   1     3     6          0.03082  -0.00325   0.00468   0.00290  -0.00101
   2     3     6         -0.05237   0.03289   0.01710   0.00340   0.00648
   3     3     6          0.01178  -0.01428  -0.01543  -0.00375  -0.00679
   1     4     6         -0.01525  -0.01185  -0.03105  -0.00302   0.01450
   2     4     6          0.02011   0.02758   0.07375   0.01857   0.03321
   3     4     6          0.01658   0.00305   0.05376   0.02445   0.03418
   1     5     6          0.00088   0.00021   0.00460  -0.00018  -0.00229
   2     5     6         -0.02396   0.00887   0.00885   0.00098   0.00164
   3     5     6         -0.01099   0.00451   0.00226   0.00134   0.00103
   1     6     6         -0.00234   0.00141   0.00084   0.00106   0.00054
   2     6     6          0.00621   0.00019   0.00167  -0.00808  -0.00633
   3     6     6         -0.00426   0.00209   0.00223  -0.00159   0.00000
   1     7     7          0.00187  -0.00099  -0.00275  -0.00081  -0.00112
   2     7     7          0.00596  -0.00239  -0.00229   0.00065  -0.00009
   3     7     7          0.00606  -0.00290   0.00130   0.00083  -0.00229
   1     8     8         -0.00060  -0.00036   0.00051   0.00049   0.00040
   2     8     8         -0.00167  -0.00082  -0.00208   0.00336   0.00307
   3     8     8         -0.00235  -0.00054  -0.00083   0.00097   0.00061
   1     9     1          0.18771   0.20461   0.33161  -0.32960  -0.43173
   2     9     1          0.31675   0.32229   0.14372   0.20185   0.13760
   3     9     1          0.13548   0.14831   0.07242   0.03461  -0.00363
   1    10     1          0.03378   0.10304  -0.10382  -0.18010   0.04183
   2    10     1          0.03884   0.13371  -0.20075  -0.25511   0.06611
   3    10     1          0.14102   0.12823  -0.23937   0.41180   0.54555
   1    11     1         -0.02432  -0.08221   0.11789   0.11012  -0.09668
   2    11     1         -0.00445   0.05025  -0.18286  -0.11991   0.10818
   3    11     1          0.37061   0.37144   0.30584  -0.04833  -0.13606
   1    12     1          0.01478   0.35429  -0.24392  -0.09511  -0.05523
   2    12     1         -0.02677   0.24893  -0.27925   0.17910  -0.27573
   3    12     1         -0.02399   0.09011  -0.13899   0.19344  -0.21116
   1    13     1          0.00839   0.12154  -0.09661  -0.01490  -0.04587
   2    13     1          0.00614  -0.06473   0.03865  -0.17048   0.16284
   3    13     1          0.01885   0.23024  -0.21104  -0.28072   0.11655
   1    14     1          0.00550  -0.29260   0.43986   0.32040  -0.04083
   2    14     1         -0.04406   0.15907  -0.24034   0.36239  -0.38721
   3    14     1          0.03545  -0.05826   0.07588  -0.34929   0.30672
   1    15     1         -0.01435  -0.02793  -0.01616  -0.00575  -0.00356
   2    15     1          0.33616  -0.21000  -0.14066  -0.01487  -0.06466
   3    15     1          0.31774  -0.18716  -0.12354  -0.01224  -0.05776
   1    16     1         -0.33866   0.11227  -0.00641  -0.03107   0.00459
   2    16     1          0.47795  -0.31634  -0.24779  -0.03753  -0.10980
   3    16     1         -0.32770   0.22418   0.18044   0.03231   0.07652
   1    17     1          0.00792  -0.03423   0.01982   0.00043  -0.01002
   2    17     1          0.01356   0.00146  -0.03954   0.00519   0.03027
   3    17     1          0.00777  -0.00228  -0.01858   0.01740   0.04105
   1    18     1          0.02760  -0.03929  -0.04027   0.01135   0.00688
   2    18     1         -0.01733   0.00183   0.00205   0.01268   0.01631
   3    18     1         -0.01954   0.01252   0.01013  -0.00558  -0.00804
   1    19     1         -0.02058   0.01197   0.01461   0.00129   0.01147
   2    19     1         -0.01211   0.00743   0.00273  -0.00238   0.00442
   3    19     1         -0.00526   0.00167  -0.00542  -0.00449  -0.00443
   1    20     1          0.01852  -0.00766  -0.00209   0.00221  -0.00227
   2    20     1          0.00331  -0.00029  -0.00482  -0.00414  -0.00308
   3    20     1          0.00177  -0.00120   0.00117   0.00045  -0.00173
                          41        42        43        44        45
                           A         A         A         A         A
       Frequencies ---  1485.9656 1634.0013 2812.4709 2907.9855 2913.6751
    Reduced masses ---     1.1171    1.0859    1.0688    1.0600    1.0683
   Force constants ---     1.4534    1.7082    4.9812    5.2813    5.3434
    IR Intensities ---    21.6120   64.5520   79.3805   13.9983   87.2080
 Coord Atom Element:
   1     1     6         -0.01144   0.00044  -0.05634  -0.00044  -0.00065
   2     1     6         -0.06519  -0.00230   0.04823   0.00131   0.00047
   3     1     6         -0.02690   0.00238   0.00001   0.00047  -0.00004
   1     2     6         -0.01515  -0.00081   0.00240  -0.00705  -0.00021
   2     2     6         -0.00830  -0.00075   0.00002  -0.05235  -0.00151
   3     2     6          0.00717  -0.00084   0.00082  -0.04404  -0.00107
   1     3     6          0.00916   0.00569   0.00108  -0.00026   0.00028
   2     3     6          0.00311   0.00049   0.00031   0.00087  -0.00010
   3     3     6         -0.00998  -0.00044   0.00071   0.00055   0.00037
   1     4     6          0.00386  -0.00138  -0.00532  -0.00044   0.00008
   2     4     6          0.01711  -0.00000  -0.00146  -0.00274   0.00002
   3     4     6          0.06303  -0.00073  -0.00172  -0.00122   0.00006
   1     5     6         -0.00022   0.01387  -0.00058   0.00007   0.00196
   2     5     6         -0.00097  -0.01374   0.00071   0.00004   0.00102
   3     5     6         -0.00211  -0.00131  -0.00021   0.00036  -0.00033
   1     6     6         -0.00042  -0.00248  -0.00076   0.00010  -0.00008
   2     6     6          0.00029  -0.00409  -0.00187  -0.00011  -0.00058
   3     6     6         -0.00088  -0.00098  -0.00011  -0.00007  -0.00135
   1     7     7          0.00030  -0.04028  -0.00018  -0.00067   0.02293
   2     7     7          0.00060  -0.05104   0.00072   0.00143  -0.05940
   3     7     7          0.00225  -0.03699  -0.00016  -0.00048   0.02425
   1     8     8         -0.00125   0.00074   0.00069  -0.00007  -0.00012
   2     8     8         -0.00079   0.00309   0.00068  -0.00017   0.00050
   3     8     8         -0.00006   0.00348   0.00032  -0.00033   0.00043
   1     9     1          0.04047  -0.00106  -0.01203  -0.00052  -0.00076
   2     9     1         -0.21733  -0.00267   0.03009  -0.00035   0.00046
   3     9     1         -0.10652   0.00196  -0.03461   0.00025   0.00095
   1    10     1          0.37725   0.00002   0.81871   0.00930   0.00783
   2    10     1          0.52561  -0.00162  -0.54965  -0.00706  -0.00557
   3    10     1         -0.03210   0.00440   0.06231  -0.00118   0.00091
   1    11     1         -0.33795   0.00124  -0.11292  -0.00100  -0.00001
   2    11     1          0.37559  -0.00294  -0.04601   0.00101  -0.00028
   3    11     1         -0.03480   0.00229  -0.00253   0.00022  -0.00071
   1    12     1         -0.14047  -0.00072   0.00186  -0.06017  -0.00173
   2    12     1          0.02194  -0.00190  -0.00792   0.14891   0.00451
   3    12     1          0.06020  -0.00197   0.00981  -0.22181  -0.00605
   1    13     1         -0.03250  -0.00101   0.00349  -0.03826  -0.00122
   2    13     1         -0.09217  -0.00161   0.00393  -0.05548  -0.00168
   3    13     1         -0.21575  -0.00279  -0.00152  -0.00463  -0.00022
   1    14     1          0.34804   0.00461  -0.01017   0.18576   0.00542
   2    14     1          0.09784   0.00262  -0.00160   0.54823   0.01405
   3    14     1         -0.16320  -0.00473  -0.00748   0.76142   0.01972
   1    15     1          0.01164  -0.01491  -0.00190   0.00010  -0.00244
   2    15     1          0.00410  -0.00154  -0.00361   0.00069   0.00264
   3    15     1         -0.00796   0.01085   0.00193  -0.00105  -0.00020
   1    16     1         -0.08757  -0.02003   0.00171   0.00239  -0.00243
   2    16     1         -0.04555   0.01625   0.00116  -0.00186   0.00118
   3    16     1          0.04151  -0.00919  -0.00079  -0.00481  -0.00097
   1    17     1          0.01689   0.00493   0.00721   0.00051   0.00075
   2    17     1          0.00348   0.00410   0.01219   0.00099   0.00051
   3    17     1          0.05807  -0.00127  -0.01544  -0.00100  -0.00199
   1    18     1         -0.01508  -0.00095   0.00157  -0.00202   0.00096
   2    18     1         -0.02727  -0.02530   0.00026   0.00011   0.00056
   3    18     1          0.01046   0.00578  -0.01138  -0.00066   0.00355
   1    19     1         -0.00032   0.45703   0.00352   0.01021  -0.37145
   2    19     1         -0.00155   0.46089  -0.00766  -0.02210   0.84828
   3    19     1         -0.00249   0.58794   0.00358   0.00946  -0.36500
   1    20     1          0.00440  -0.06373  -0.00085  -0.00050   0.03201
   2    20     1          0.00202   0.45664   0.00097   0.00064  -0.03928
   3    20     1          0.00097  -0.11160  -0.00062  -0.00090   0.03448
                          46        47        48        49        50
                           A         A         A         A         A
       Frequencies ---  3101.3037 3139.2888 3156.3610 3168.8109 3240.2105
    Reduced masses ---     1.0888    1.0674    1.0795    1.0850    1.1006
   Force constants ---     6.1700    6.1979    6.3364    6.4191    6.8079
    IR Intensities ---     4.2004   17.6343   12.5034   41.6583    5.7318
 Coord Atom Element:
   1     1     6          0.00119  -0.06002  -0.00636   0.00704   0.03819
   2     1     6         -0.00026  -0.02153  -0.00288   0.00488   0.05402
   3     1     6          0.00043  -0.03487  -0.00206   0.00062  -0.06359
   1     2     6         -0.02731   0.00019  -0.00030  -0.00004   0.00016
   2     2     6          0.02752   0.00040   0.00025  -0.00023  -0.00048
   3     2     6         -0.07654  -0.00035  -0.00084  -0.00053   0.00040
   1     3     6          0.00038   0.00180  -0.00555  -0.00212   0.00024
   2     3     6          0.00057   0.00354  -0.05003  -0.01931  -0.00047
   3     3     6          0.00104   0.00381  -0.05650  -0.02061   0.00043
   1     4     6          0.00011  -0.00148   0.00070   0.00082  -0.00032
   2     4     6         -0.00106   0.00100  -0.00002   0.00094   0.00088
   3     4     6         -0.00064   0.00129  -0.00018  -0.00036  -0.00034
   1     5     6          0.00009  -0.00098   0.00188  -0.00569   0.00022
   2     5     6         -0.00005  -0.00354   0.00942  -0.02837   0.00162
   3     5     6         -0.00000  -0.00943   0.02541  -0.07282   0.00366
   1     6     6         -0.00010  -0.00002  -0.00016  -0.00010  -0.00021
   2     6     6         -0.00017   0.00027   0.00056  -0.00010  -0.00007
   3     6     6         -0.00025   0.00037   0.00004  -0.00035  -0.00004
   1     7     7         -0.00003  -0.00005  -0.00015  -0.00010  -0.00002
   2     7     7          0.00003   0.00010   0.00041   0.00005   0.00008
   3     7     7         -0.00001  -0.00018   0.00044  -0.00005  -0.00012
   1     8     8          0.00010   0.00010  -0.00013   0.00045   0.00021
   2     8     8          0.00008  -0.00019   0.00003  -0.00084   0.00007
   3     8     8         -0.00008   0.00002  -0.00061   0.00148  -0.00002
   1     9     1          0.00021  -0.04154  -0.00252   0.00023  -0.05130
   2     9     1          0.00223  -0.22166  -0.01371   0.00370  -0.38995
   3     9     1         -0.00135   0.43297   0.02932  -0.00284   0.78104
   1    10     1         -0.00738   0.07758   0.00551   0.00002  -0.01657
   2    10     1          0.00527  -0.05639  -0.00420   0.00115   0.01793
   3    10     1         -0.00115   0.00360   0.00005   0.00212  -0.01124
   1    11     1         -0.00511   0.68257   0.07266  -0.08197  -0.38303
   2    11     1         -0.00228   0.51309   0.05407  -0.06197  -0.27660
   3    11     1          0.00061  -0.03120  -0.00260   0.00147   0.00245
   1    12     1          0.20899   0.00240   0.00154   0.00063   0.00074
   2    12     1         -0.53198  -0.00432  -0.00489  -0.00099  -0.00032
   3    12     1          0.76864   0.00462   0.00685   0.00066  -0.00107
   1    13     1          0.06463  -0.00047   0.00166  -0.00291   0.00044
   2    13     1          0.06326  -0.00103   0.00135   0.00032   0.00227
   3    13     1         -0.04706   0.00060  -0.00024   0.00135  -0.00012
   1    14     1          0.04701   0.00045  -0.00036  -0.00021  -0.00062
   2    14     1          0.14663   0.00040   0.00397   0.00148  -0.00093
   3    14     1          0.20182   0.00048   0.00638   0.00231  -0.00000
   1    15     1         -0.00287  -0.00149  -0.02881  -0.00686  -0.00215
   2    15     1         -0.00146  -0.00227   0.02936   0.01067  -0.00276
   3    15     1          0.00032   0.00208  -0.07441  -0.02373   0.00096
   1    16     1         -0.00029  -0.00705   0.09277   0.02974   0.00042
   2    16     1         -0.00549  -0.03617   0.55656   0.19926  -0.00050
   3    16     1         -0.00814  -0.04551   0.74499   0.26094   0.00072
   1    17     1         -0.00106   0.00078  -0.00172  -0.00206  -0.00071
   2    17     1          0.00463   0.00275   0.00214  -0.00003   0.00747
   3    17     1         -0.00845  -0.00532  -0.00415  -0.00217  -0.01640
   1    18     1          0.00011   0.00580  -0.02305   0.05168  -0.00619
   2    18     1          0.00038   0.04537  -0.12403   0.36245  -0.01960
   3    18     1          0.00090   0.10632  -0.29575   0.85956  -0.04616
   1    19     1         -0.00039   0.00032   0.00248  -0.00049   0.00028
   2    19     1          0.00074  -0.00172   0.00220  -0.00356  -0.00015
   3    19     1         -0.00018   0.00039  -0.00120   0.00048  -0.00006
   1    20     1          0.00013   0.00028   0.00022   0.00746  -0.00029
   2    20     1          0.00016   0.00006  -0.00051   0.00245   0.00021
   3    20     1         -0.00005  -0.00033   0.00059  -0.00308   0.00013
                          51        52        53        54
[...]
 835,-0.09666923,0.70687838,-0.00341011,0.00538844,0.00310775,-0.003865
 09,-0.00002177,0.00058705,0.00404534,-0.00258644,-0.00203738,0.0052413
 4,-0.00184481,-0.00242380,-0.00354525,0.02019507,0.02087961,-0.1044214
 7,0.01766241,-0.01354012,-0.00018714,0.00512022,0.00249226,0.10329989,
 -0.00322545,0.00303087,0.00005946,-0.00462043,0.00825463,0.00635471,-0
 .01687198,0.02175550,0.00741387,0.01445809,-0.01487883,-0.00419983,0.0
 6026908,-0.07501279,-0.03802902,0.01583461,-0.15445456,-0.00217279,-0.
 02925338,-0.00081952,-0.00772007,-0.04034538,0.21011063,0.00041894,-0.
 00249510,0.00091083,0.00194060,-0.00180693,-0.00183288,-0.01003976,-0.
 00865103,-0.00528888,-0.00053437,0.00638750,0.00072481,0.02830408,-0.0
 0448737,-0.02124072,-0.01426294,-0.00905786,-0.08669077,0.00242349,-0.
 00182754,0.00268668,-0.00685387,0.02912568,0.10537772,-0.04203065,0.00
 322699,0.00136054,-0.00133421,-0.00057640,-0.00035584,0.00115485,0.000
 26559,0.00151361,-0.00005760,-0.00305183,0.00361612,0.00023332,-0.0003
 2441,0.00026599,-0.00002015,0.00338929,-0.00048061,0.00003657,0.000160
 50,-0.00015864,-0.00099820,-0.00225391,0.00097994,0.04088222,0.0018237
 5,-0.05763435,-0.07583516,0.00053880,0.00258178,-0.00116517,-0.0014943
 3,0.00168460,0.00327321,-0.00478446,0.00026228,0.03007418,-0.00022487,
 -0.00044226,0.00006956,0.00129911,-0.00208593,0.00080175,-0.00028346,0
 .00014464,-0.00042760,-0.00014059,0.00153760,-0.00057528,0.00045142,0.
 06681708,0.00038303,-0.07461865,-0.31950454,-0.00132874,-0.00019370,0.
 00125983,-0.00282444,-0.00153828,0.00135813,0.00815855,-0.00331939,-0.
 02434819,0.00052277,-0.00041882,-0.00004771,0.00026438,0.00011289,0.00
 029193,0.00012401,-0.00027010,0.00017610,-0.00072850,0.00005402,0.0000
 4610,-0.00905338,0.07446869,0.34814873,-0.19446777,0.08801124,0.014794
 36,0.00645745,0.00042188,-0.00251487,0.00461373,0.00102368,-0.00054982
 ,-0.01059365,-0.00314768,0.00210707,-0.00327917,-0.00064012,0.00376446
 ,-0.00244341,-0.00554030,-0.00120415,0.00059294,0.00032507,-0.00018947
 ,0.00191532,0.00247955,-0.00047623,-0.00139882,0.00097974,0.00145480,0
 .21404156,0.08754488,-0.10475862,-0.00987992,-0.00390215,-0.00365194,0
 .00330259,0.00038014,0.00023361,0.00142133,0.02797999,-0.01725116,-0.0
 0637416,-0.00070654,-0.00073090,-0.00089237,0.00045969,0.00052824,0.00
 058238,0.00023458,0.00022238,-0.00009996,-0.00164658,-0.00010321,0.000
 28659,0.00537571,-0.00537657,-0.00080939,-0.10177580,0.12235238,0.0176
 9456,-0.01262348,-0.05280482,-0.00324367,0.00354915,0.00010027,-0.0021
 3087,-0.00028465,-0.00021161,-0.01019002,0.01226849,0.00017902,0.00204
 255,-0.00072241,-0.00132719,0.00070246,0.00580426,0.00018153,-0.000356
 41,-0.00032199,0.00011769,-0.00106756,-0.00371609,0.00086697,0.0253907
 2,-0.01648351,-0.00320267,-0.02172256,0.01009689,0.05397695,-0.2232297
 1,-0.13296709,-0.05724196,0.00137754,0.00122316,-0.00036392,0.00325998
 ,0.00195054,0.00092867,-0.00250746,-0.00002507,0.00107227,-0.00119124,
 -0.00020959,0.00089926,0.00007175,0.00041055,-0.00136525,0.00008033,0.
 00009212,-0.00000609,0.00049639,-0.00017063,0.00035912,0.00287452,0.00
 358249,0.00270292,-0.01692182,-0.01324645,-0.00562589,0.23497162,-0.13
 157721,-0.13286853,-0.03660915,-0.00439281,0.00115703,-0.00012902,-0.0
 0069745,-0.00410077,0.00432726,-0.01285790,-0.01398138,-0.00995585,0.0
 0104540,-0.00004975,-0.00109478,0.00051431,0.00363919,-0.00032966,0.00
 007865,-0.00002429,0.00031544,-0.00179362,-0.00198505,0.00117940,-0.00
 514638,-0.00377969,0.00050487,0.01594699,0.00872685,0.00355482,0.13915
 220,0.14506704,-0.05580765,-0.03532863,-0.05711793,0.00090618,0.000625
 20,0.00101320,-0.00073044,0.00273211,-0.00060838,0.01567282,0.00679095
 ,0.00288034,0.00001253,-0.00053725,-0.00035994,0.00077455,-0.00056114,
 0.00053925,-0.00025535,-0.00002040,-0.00015806,-0.00061639,0.00056547,
 -0.00021284,-0.02391658,-0.01602530,-0.00428122,0.00535130,0.00276499,
 0.00028024,0.05878214,0.03807412,0.05783535,0.00106990,-0.00166244,0.0
 0013720,-0.06765287,0.02499890,0.06747829,0.00115677,0.00181676,0.0020
 4253,-0.01541167,0.00967899,0.02530418,0.00115097,-0.00108930,-0.00018
 444,-0.00034433,0.00129988,0.00005410,-0.00020989,0.00011247,-0.000012
 13,0.00029454,-0.00092825,0.00018494,0.00021434,0.00033944,-0.00056481
 ,-0.00010938,-0.00001484,-0.00010978,0.00007387,0.00014289,-0.00014469
 ,0.07802387,-0.00005517,0.00116047,-0.00063034,0.02573356,-0.08155193,
 -0.08784201,-0.00113809,0.00065240,0.00066115,0.00565615,-0.00845637,-
 0.01652065,-0.00083800,0.00041044,0.00002256,0.00051982,-0.00092627,-0
 .00009362,-0.00010472,-0.00001807,-0.00011813,-0.00007595,0.00052792,-
 0.00015850,0.00038714,-0.00033666,0.00045547,-0.00032531,0.00002611,0.
 00054857,-0.00000385,0.00001196,-0.00020696,-0.03396120,0.08150508,-0.
 00049795,-0.00016637,0.00074840,0.06913505,-0.08916438,-0.26285886,-0.
 00101426,0.00066074,0.00112887,-0.00090850,0.00214944,0.00341978,-0.00
 035994,0.00001990,0.00032618,0.00026741,0.00058538,-0.00036093,0.00004
 181,-0.00013012,-0.00003936,-0.00012581,-0.00030990,0.00021391,-0.0000
 8437,-0.00024542,-0.00000480,0.00014982,-0.00008833,-0.00013802,0.0001
 1857,-0.00014662,0.00004423,-0.07573956,0.09598849,0.27244523,0.001745
 61,-0.00246399,0.00018630,-0.23235004,-0.16081285,-0.14893382,-0.00295
 845,0.00198213,-0.00116722,-0.01739396,-0.01428734,-0.00893930,-0.0012
 7070,0.00004283,0.00021961,-0.00038846,-0.00181163,-0.00013632,0.00035
 585,0.00014532,0.00015862,0.00013557,0.00134988,-0.00022717,0.00011218
 ,0.00018798,0.00018008,-0.00001154,0.00003405,0.00053599,0.00036289,0.
 00069692,-0.00015179,0.01023862,0.00961529,0.00653318,0.24454235,-0.00
 041957,0.00206704,0.00063638,-0.16147265,-0.14893545,-0.12112762,0.001
 99124,0.00150207,0.00224847,0.01486575,0.00757083,0.00940043,0.0023192
 4,-0.00204575,-0.00008926,-0.00017106,0.00405101,-0.00081168,-0.001009
 56,-0.00038369,-0.00042717,0.00015622,-0.00276366,0.00086971,0.0001700
 9,-0.00015417,-0.00017259,-0.00001709,0.00037667,-0.00034229,0.0001340
 4,-0.00021075,0.00000126,-0.00653769,-0.00519485,-0.00044961,0.1683022
 6,0.15772296,0.00137150,-0.00001781,0.00037942,-0.14993567,-0.12078240
 ,-0.13750774,0.00049726,0.00128827,0.00106041,-0.00171927,-0.00337207,
 -0.00312887,-0.00005293,-0.00007823,0.00036240,0.00047368,-0.00057667,
 0.00005350,-0.00053076,-0.00005457,-0.00028881,0.00015269,0.00029086,-
 0.00017668,0.00007851,-0.00032850,0.00021240,0.00002066,0.00000166,0.0
 0043739,-0.00018213,0.00076333,-0.00022635,-0.01825666,-0.01208994,-0.
 00672763,0.15441878,0.12155004,0.13604021,-0.00132727,0.00240586,-0.00
 013773,-0.05893479,-0.04979592,0.04207488,0.00162596,0.00323595,-0.000
 02889,-0.00783067,0.02275420,-0.01983975,0.00035226,0.00088288,-0.0002
 2170,0.00008525,-0.00237527,0.00069350,-0.00062001,0.00008174,-0.00033
 189,0.00085826,0.00130868,-0.00083511,0.00018946,-0.00083490,0.0003454
 1,-0.00140509,0.00155945,0.00028147,-0.00021979,0.00080599,0.00000678,
 -0.00346801,-0.00764419,0.00291039,-0.00438050,-0.01792004,0.01423483,
 0.07512719,0.00363596,-0.00099861,-0.00013498,-0.05012789,-0.16285422,
 0.10045062,-0.00270608,0.00100739,-0.00060603,0.00284323,-0.02038624,0
 .01435337,0.00056310,-0.00009476,-0.00102222,0.00023275,0.00094073,0.0
 0007801,-0.00013208,-0.00021404,0.00005202,-0.00033775,-0.00069210,0.0
 0022323,-0.00008309,0.00029149,0.00002423,0.00091757,-0.00114725,0.000
 55552,0.00023432,0.00015630,-0.00016171,0.00318508,0.01216904,-0.00905
 417,-0.00282170,-0.01470394,0.01286489,0.04524499,0.18618939,-0.002115
 54,0.00043460,0.00136105,0.04006190,0.10287404,-0.14849628,0.00054753,
 -0.00027499,-0.00088627,0.00112479,0.00756880,-0.00449727,-0.00000119,
 -0.00004633,0.00021652,0.00009783,-0.00024582,0.00025022,0.00024010,0.
 00010177,0.00015109,-0.00006458,0.00011712,-0.00011493,0.00017890,-0.0
 0033305,0.00038303,0.00009159,0.00052137,-0.00010368,0.00008306,-0.000
 08178,-0.00008324,0.00220540,0.01870431,-0.00952216,-0.00292809,-0.010
 71649,0.00895761,-0.03895990,-0.11775009,0.15122248,0.00211963,0.00077
 635,-0.00203739,0.00299607,-0.00073037,-0.00169355,-0.08454058,0.06699
 925,0.13497850,0.00063492,-0.01124390,-0.01686207,-0.01664997,0.011013
 07,0.02119856,0.00095977,0.00193981,-0.00723887,-0.00084715,-0.0014047
 6,-0.00231266,0.00021796,-0.00125970,0.00221369,0.00015990,0.00045988,
 0.00076648,-0.00059342,0.00034182,0.00029154,-0.00030063,0.00035164,0.
 00005937,-0.00049639,-0.00019758,0.00063629,0.00003712,0.00016086,-0.0
 0005207,-0.00033215,0.00013114,0.00005463,0.09795287,0.00289437,0.0027
 9693,-0.00164862,0.00287275,0.00117969,0.00093889,0.07065062,-0.090508
 92,-0.13128778,0.00199371,-0.01106003,-0.02000084,0.00081618,-0.007737
 35,-0.00604876,0.00156332,-0.00117153,-0.00096752,0.00021500,0.0011665
 5,0.00051427,-0.00058787,0.00093396,0.00022764,-0.00004110,-0.00047178
 ,0.00103177,-0.00046770,0.00001139,0.00032766,-0.00039987,0.00032014,0
 .00019737,-0.00062518,0.00075513,0.00010913,0.00010361,-0.00044813,0.0
 0026234,-0.00039460,0.00008218,0.00030692,-0.06579224,0.09612428,0.000
 14212,0.00116448,0.00045898,0.00121986,0.00113513,0.00142000,0.1292241
 0,-0.12750010,-0.29121001,0.00542073,-0.00542244,-0.01187715,-0.004916
 08,0.00436603,0.00645948,-0.00289291,0.00262521,-0.00031711,-0.0019943
 0,-0.00064199,-0.00059738,0.00115218,-0.00172025,0.00079227,-0.0002062
 5,-0.00007130,0.00054583,-0.00000584,0.00009356,-0.00023063,-0.0001667
 1,-0.00007608,0.00029329,-0.00076357,0.00021012,0.00017482,0.00007734,
 -0.00019854,0.00028613,0.00017206,-0.00015576,-0.00007771,-0.13400007,
 0.13700927,0.30954048,-0.00290144,-0.00124241,-0.00263440,0.00088754,-
 0.00097313,0.00120175,-0.04733637,-0.03494092,0.03141284,-0.00362639,-
 0.01546601,0.01303427,-0.00807779,0.01980431,-0.01769626,0.00092574,0.
 00076556,-0.00339334,0.00360755,0.00236436,0.00046782,-0.00046397,0.00
 090714,0.00110937,-0.00013670,0.00036380,-0.00033818,0.00012925,-0.000
 28759,-0.00014978,0.00019090,-0.00135889,0.00042642,0.00004194,-0.0000
 4318,0.00004623,0.00011010,0.00032350,-0.00016943,-0.00030443,0.000216
 66,-0.00084237,-0.00095991,-0.01060429,0.00812814,0.06134576,-0.003632
 33,-0.00112640,-0.00292481,0.00083129,0.00047250,0.00060788,-0.0346791
 5,-0.20721416,0.13780114,-0.00240688,-0.01571486,0.01198220,0.00051339
 ,-0.01209182,0.00791471,-0.00085041,0.00081346,0.00117747,-0.00287413,
 0.00230136,-0.00272545,-0.00014084,-0.00058725,-0.00000951,0.00001020,
 0.00029826,-0.00018010,0.00023602,0.00004905,-0.00011812,0.00009549,-0
 .00103468,0.00064032,-0.00004274,0.00003519,-0.00014441,0.00018280,0.0
 0015165,-0.00025770,-0.00026613,0.00064491,-0.00031744,0.00226447,0.00
 860423,-0.00852987,0.03733638,0.22343005,-0.00115403,0.00045303,-0.001
 11544,0.00087678,-0.00042911,0.00026615,0.03278046,0.13948637,-0.16151
 500,-0.00493472,-0.01550760,0.00600674,-0.00121124,-0.00158919,-0.0002
 6414,-0.00031924,0.00065521,-0.00073270,0.00061664,0.00004065,-0.00015
 784,-0.00033509,0.00034613,0.00082022,-0.00013450,-0.00026331,0.000560
 78,-0.00007872,-0.00002602,0.00008939,-0.00037079,-0.00075892,0.000532
 25,-0.00004496,0.00019562,-0.00008241,0.00013125,-0.00014235,-0.000012
 81,-0.00000006,0.00028653,0.00009670,0.00487496,0.02100122,-0.01655890
 ,-0.02990939,-0.14553917,0.17085591,-0.00301745,0.00877498,0.00937724,
 -0.01437190,0.01084469,0.02662916,-0.00630891,-0.00826916,-0.02023316,
 -0.08914195,0.04298324,0.18032383,0.00574120,-0.00052329,-0.00442202,0
 .00387737,-0.00115769,0.00476693,-0.00171426,-0.00080338,-0.00088508,-
 0.00201206,0.00116121,-0.00163990,0.00104190,-0.00276516,-0.00120818,0
 .00336219,-0.00180216,-0.00161191,0.00056487,-0.00055418,-0.00113846,-
 0.00442755,0.00242557,-0.00102936,0.00099632,-0.00059979,-0.00037285,0
 .00053194,-0.00062038,0.00012655,-0.00042435,-0.00253622,-0.00197526,0
 .00070133,0.00049925,-0.00011801,0.10426027,-0.01302129,0.00081187,0.0
 3362370,0.00318979,-0.00537458,-0.01229885,0.00213447,-0.01080772,-0.0
 2362896,0.05217278,-0.03464551,-0.10249291,0.00209036,0.00117059,-0.00
 030868,-0.00139023,0.00140952,0.00064912,0.00062115,-0.00050959,0.0005
 4829,-0.00004624,-0.00096024,0.00003349,-0.00137153,-0.00391391,0.0042
 8663,0.00048269,0.00149803,-0.00095201,-0.00008707,-0.00012871,0.00010
 103,0.00300629,-0.00075350,0.00038547,-0.00032515,0.00056859,0.0005379
 5,0.00077076,-0.00027147,-0.00074277,-0.00277430,-0.00193772,-0.002285
 20,0.00085383,0.00039227,0.00027822,-0.04611823,0.05389621,0.00743052,
 -0.00176506,-0.01852158,-0.00241034,0.00199207,0.00669404,0.00573255,-
 0.00566671,-0.01431915,0.18099054,-0.10155737,-0.42692978,-0.00134447,
 0.00213412,0.00081177,-0.00294023,-0.00316601,-0.00054915,0.00152908,0
 .00024780,0.00070989,0.00052534,0.00221404,-0.00045619,0.00099432,0.00
 355887,-0.00093507,-0.00086364,-0.00030959,0.00188676,-0.00002999,0.00
 049905,-0.00000641,-0.00156619,0.00090807,0.00122661,-0.00005438,-0.00
 006162,0.00029775,-0.00031438,0.00003102,0.00115904,-0.00207721,-0.001
 27049,-0.00003842,0.00014567,0.00030458,0.00124868,-0.18610280,0.10210
 747,0.44775990,-0.00020461,-0.00018024,-0.00128328,-0.00062836,0.00239
 056,0.00112944,-0.00997901,0.02330053,-0.01645607,0.00533123,-0.002434
 02,-0.00002147,-0.01622303,-0.03138832,0.02182425,-0.00886337,0.009218
 13,0.01312303,-0.01020061,-0.01572175,0.01568803,0.00221185,-0.0099579
 4,-0.00027831,-0.00090269,0.00037273,0.00119247,0.00028825,-0.00048295
 ,-0.00076279,0.00013439,-0.00028363,0.00069703,-0.00010426,0.00001295,
 -0.00006985,0.00035508,-0.00058331,-0.00016252,-0.00022157,-0.00037791
 ,0.00023870,-0.00049608,0.00091436,-0.00049409,-0.00348717,0.00203543,
 0.00049970,-0.00038909,-0.00009166,0.00069494,0.04439094,-0.00006067,0
 .00166748,0.00061344,-0.00063794,-0.00232874,-0.00107547,0.00078351,-0
 .01446424,0.00934360,0.00175440,0.00484183,0.00023919,-0.03126764,-0.1
 1145836,0.14187352,0.00752994,-0.00828975,-0.01674329,-0.00664270,-0.0
 1763998,0.01808926,0.00179873,0.00577987,-0.00722904,-0.00041093,0.000
 30415,0.00064967,0.00076559,-0.00087647,-0.00084382,0.00028480,-0.0005
 4698,0.00020387,0.00029576,-0.00008220,0.00009248,-0.00016954,0.001024
 77,-0.00008063,-0.00006958,-0.00001294,-0.00019738,0.00030762,0.000731
 92,0.00037702,0.00224428,-0.00041595,0.00097512,-0.00153490,-0.0003294
 8,-0.00017043,0.02705300,0.14765277,-0.00078286,0.00045526,0.00191568,
 0.00010179,0.00089537,0.00009418,-0.00433691,0.00595053,-0.00312077,0.
 00216634,-0.00049570,-0.00127933,0.03679670,0.14364873,-0.23802553,0.0
 0498653,-0.00249765,-0.01310796,-0.00154891,-0.00670056,0.00847912,-0.
 00173115,0.00751445,0.00159453,0.00006688,-0.00057757,-0.00058682,0.00
 004945,-0.00060586,-0.00006946,0.00051020,0.00001248,-0.00037292,0.000
 03896,-0.00007953,0.00004199,0.00012583,-0.00015740,-0.00008997,-0.000
 20433,-0.00006112,0.00004242,0.00065472,-0.00015532,0.00047821,-0.0004
 1889,0.00011603,0.00078212,-0.00102187,0.00013615,-0.00006269,-0.03403
 164,-0.14526218,0.24315920,0.00017191,-0.00006026,0.00043171,-0.000057
 51,-0.00070590,-0.00035216,0.00287210,-0.00516573,-0.00510412,-0.00091
 551,0.00195686,-0.00012289,0.00658888,-0.01167088,-0.00710077,-0.00409
 367,-0.01321127,-0.01239069,-0.10221179,0.07591606,0.08101962,0.001510
 59,0.00393931,0.00218403,0.00006722,-0.00017622,0.00001111,-0.00007992
 ,-0.00003292,0.00011264,0.00001172,0.00011775,-0.00007380,-0.00002305,
 -0.00004453,0.00005195,-0.00007869,0.00030829,0.00005256,-0.00002381,0
 .00002006,-0.00011815,0.00041560,-0.00052864,0.00171415,-0.00001935,0.
 00005985,-0.00074214,-0.00025617,0.00022519,0.00012919,0.00075521,-0.0
 0118917,0.00009700,0.10065395,-0.00029028,-0.00011511,-0.00027410,-0.0
 0040415,-0.00035773,0.00001650,0.00278958,0.00004219,-0.00008984,0.000
 11437,0.00071178,0.00080478,0.00631265,-0.01406961,-0.01096402,-0.0020
 0604,-0.00681934,0.00310584,0.06428887,-0.19689346,-0.09165798,0.00037
 641,0.00219848,-0.00227818,-0.00010457,0.00013978,-0.00002223,0.000137
 04,-0.00009739,-0.00011758,-0.00000967,-0.00016747,0.00009477,0.000021
 11,0.00004544,-0.00005140,-0.00003878,-0.00001217,0.00006263,0.0001572
 9,-0.00003941,0.00003808,-0.00087580,0.00040624,-0.00030888,-0.0004388
 5,0.00059655,0.00023178,0.00040294,-0.00008172,-0.00010343,0.00023971,
 -0.00115873,-0.00035667,-0.06564287,0.20570075,0.00000872,0.00001910,0
 .00016763,-0.00008690,-0.00065116,0.00000339,0.00067023,-0.00261466,-0
 .00245278,-0.00005955,0.00168751,-0.00005910,0.00249583,0.00640146,0.0
 0545938,-0.00336367,-0.01341684,-0.01014264,0.04893223,-0.06121768,-0.
 09113680,0.00045226,0.00592912,0.00099365,-0.00003170,0.00000979,-0.00
 000216,-0.00000056,-0.00011287,-0.00001130,0.00002882,-0.00003097,0.00
 000232,0.00000608,0.00002022,0.00001879,-0.00002933,0.00020359,0.00006
 503,0.00007388,0.00001224,-0.00010545,0.00088584,-0.00046172,0.0003974
 2,-0.00046873,0.00007071,-0.00065413,0.00003008,-0.00006383,-0.0000790
 6,0.00043362,-0.00027286,0.00043338,-0.06559724,0.09322068,0.11169005,
 -0.00021533,-0.00027268,-0.00084384,-0.00065254,-0.00077086,0.00001449
 ,0.00258687,-0.00508400,-0.00124784,-0.00139436,0.00188880,0.00091571,
 -0.02624435,-0.01321090,0.01971795,0.00734047,0.00013366,0.01458610,-0
 .04340999,-0.08723058,0.17670834,-0.00132379,0.00717949,-0.00497056,-0
 .00008746,0.00030486,-0.00005978,-0.00009671,-0.00001233,-0.00008067,-
 0.00010012,-0.00019065,0.00014603,-0.00001741,0.00008132,-0.00006109,-
 0.00015934,-0.00000071,0.00013383,0.00029778,-0.00001800,-0.00002117,0
 .00014678,-0.00004622,0.00016441,-0.00062658,0.00082803,-0.00042689,0.
 00098630,-0.00032161,-0.00046853,-0.00176709,-0.00083455,-0.00151784,-
 0.00528771,-0.00502898,0.01562008,0.07002458,-0.00034296,0.00019206,-0
 .00023561,-0.00042242,0.00054164,0.00036242,0.00044203,0.00181754,0.00
 038058,0.00101221,-0.00102631,0.00033240,-0.00207316,-0.01123881,0.023
 62318,-0.00139122,-0.00397270,-0.00164606,-0.11066949,-0.10831604,0.20
 784825,-0.00112967,-0.00187223,0.00024310,-0.00007279,0.00013368,-0.00
 004498,0.00018694,-0.00003120,-0.00017940,-0.00004043,-0.00020046,0.00
 004994,-0.00003593,0.00002069,-0.00004030,0.00008790,-0.00018302,0.000
 01656,0.00009284,-0.00006644,0.00003914,-0.00046725,0.00022280,-0.0000
 7043,0.00017547,0.00039564,0.00030580,0.00019266,-0.00003294,0.0000736
 4,-0.00403565,-0.00439896,-0.00177945,0.01588501,0.00997092,-0.0287318
 3,0.10260592,0.11804416,0.00001848,-0.00000766,-0.00047680,-0.00008077
 ,0.00040344,0.00029898,0.00204821,0.00004826,0.00111171,-0.00139034,-0
 .00154807,-0.00012192,-0.01592911,-0.01623777,0.00852746,-0.00155545,-
 0.00003982,0.00265446,0.23129064,0.21183603,-0.52539511,0.00017510,-0.
 00211699,0.00098618,-0.00002366,0.00007511,-0.00006969,-0.00017765,0.0
 0012712,-0.00001682,-0.00013232,-0.00001793,0.00000680,-0.00006487,0.0
 0002509,-0.00005463,0.00000046,-0.00021325,0.00000659,0.00008054,0.000
 01440,0.00004682,-0.00034068,-0.00008544,0.00006038,0.00004827,0.00013
 155,-0.00016557,0.00050509,0.00008569,0.00010305,-0.00196119,-0.000582
 09,-0.00030538,0.00579798,0.00864927,-0.01458762,-0.21830873,-0.200546
 95,0.52739110\\-0.03246034,0.02636782,-0.01990216,-0.05038985,-0.04789
 719,0.00330626,-0.03562619,0.01901299,0.03866032,0.02522469,-0.0151606
 5,-0.05590883,0.02236866,-0.09109959,0.02198398,-0.00441650,0.27934824
 ,-0.07991593,0.05354700,-0.01399039,-0.08432064,0.01770653,-0.22403895
 ,0.05699954,0.01231146,0.00417281,-0.01459316,0.01711036,-0.00028582,0
 .00236470,-0.00118758,0.00016535,0.00046306,0.00683107,-0.00128356,0.0
 0881703,0.03165815,0.03123296,0.01232740,0.01849097,-0.00750768,-0.014
 92336,0.00913405,-0.00493395,-0.03538647,-0.00150895,-0.00136164,0.005
 16836,-0.02756512,0.01264534,0.07342364,-0.01188098,0.02671418,0.00787
 652,-0.01902597,0.03538779,0.01393512,-0.03032145,-0.02748807,0.059624
 59\\\@


 WOE UNTO THEM THAT CALL EVIL GOOD, AND GOOD EVIL      
 Job cpu time:       0 days  0 hours 28 minutes  5.1 seconds.
 Elapsed time:       0 days  0 hours  3 minutes 30.9 seconds.
 File lengths (MBytes):  RWF=     69 Int=      0 D2E=      0 Chk=      4 Scr=      1
 Normal termination of Gaussian 16 at Wed Feb 24 15:47:04 2021.
